<?xml version="1.0"?>
<VTKFile type="UnstructuredGrid"  version="0.1"  >
<UnstructuredGrid>
<Piece  NumberOfPoints="1001" NumberOfCells="1000">
<Points>
<DataArray  type="Float64"  NumberOfComponents="3"  format="ascii">0 0 0  0.001 0 0  0.002 0 0  0.003 0 0  0.004 0 0  0.005 0 0  0.006 0 0  0.007 0 0  0.008 0 0  0.008999999999999999 0 0  0.01 0 0  0.011 0 0  0.012 0 0  0.013 0 0  0.014 0 0  0.015 0 0  0.016 0 0  0.017 0 0  0.018 0 0  0.019 0 0  0.02 0 0  0.021 0 0  0.022 0 0  0.023 0 0  0.024 0 0  0.025 0 0  0.026 0 0  0.027 0 0  0.028 0 0  0.029 0 0  0.03 0 0  0.031 0 0  0.032 0 0  0.033 0 0  0.034 0 0  0.035 0 0  0.036 0 0  0.037 0 0  0.038 0 0  0.039 0 0  0.04 0 0  0.041 0 0  0.042 0 0  0.043 0 0  0.044 0 0  0.045 0 0  0.046 0 0  0.047 0 0  0.048 0 0  0.049 0 0  0.05 0 0  0.051 0 0  0.052 0 0  0.053 0 0  0.054 0 0  0.055 0 0  0.056 0 0  0.057 0 0  0.058 0 0  0.059 0 0  0.06 0 0  0.061 0 0  0.062 0 0  0.063 0 0  0.064 0 0  0.065 0 0  0.066 0 0  0.067 0 0  0.068 0 0  0.06900000000000001 0 0  0.07000000000000001 0 0  0.07099999999999999 0 0  0.07199999999999999 0 0  0.073 0 0  0.074 0 0  0.075 0 0  0.076 0 0  0.077 0 0  0.078 0 0  0.079 0 0  0.08 0 0  0.081 0 0  0.082 0 0  0.083 0 0  0.08400000000000001 0 0  0.08500000000000001 0 0  0.08599999999999999 0 0  0.08699999999999999 0 0  0.08799999999999999 0 0  0.089 0 0  0.09 0 0  0.091 0 0  0.092 0 0  0.093 0 0  0.094 0 0  0.095 0 0  0.096 0 0  0.097 0 0  0.098 0 0  0.099 0 0  0.1 0 0  0.101 0 0  0.102 0 0  0.103 0 0  0.104 0 0  0.105 0 0  0.106 0 0  0.107 0 0  0.108 0 0  0.109 0 0  0.11 0 0  0.111 0 0  0.112 0 0  0.113 0 0  0.114 0 0  0.115 0 0  0.116 0 0  0.117 0 0  0.118 0 0  0.119 0 0  0.12 0 0  0.121 0 0  0.122 0 0  0.123 0 0  0.124 0 0  0.125 0 0  0.126 0 0  0.127 0 0  0.128 0 0  0.129 0 0  0.13 0 0  0.131 0 0  0.132 0 0  0.133 0 0  0.134 0 0  0.135 0 0  0.136 0 0  0.137 0 0  0.138 0 0  0.139 0 0  0.14 0 0  0.141 0 0  0.142 0 0  0.143 0 0  0.144 0 0  0.145 0 0  0.146 0 0  0.147 0 0  0.148 0 0  0.149 0 0  0.15 0 0  0.151 0 0  0.152 0 0  0.153 0 0  0.154 0 0  0.155 0 0  0.156 0 0  0.157 0 0  0.158 0 0  0.159 0 0  0.16 0 0  0.161 0 0  0.162 0 0  0.163 0 0  0.164 0 0  0.165 0 0  0.166 0 0  0.167 0 0  0.168 0 0  0.169 0 0  0.17 0 0  0.171 0 0  0.172 0 0  0.173 0 0  0.174 0 0  0.175 0 0  0.176 0 0  0.177 0 0  0.178 0 0  0.179 0 0  0.18 0 0  0.181 0 0  0.182 0 0  0.183 0 0  0.184 0 0  0.185 0 0  0.186 0 0  0.187 0 0  0.188 0 0  0.189 0 0  0.19 0 0  0.191 0 0  0.192 0 0  0.193 0 0  0.194 0 0  0.195 0 0  0.196 0 0  0.197 0 0  0.198 0 0  0.199 0 0  0.2 0 0  0.201 0 0  0.202 0 0  0.203 0 0  0.204 0 0  0.205 0 0  0.206 0 0  0.207 0 0  0.208 0 0  0.209 0 0  0.21 0 0  0.211 0 0  0.212 0 0  0.213 0 0  0.214 0 0  0.215 0 0  0.216 0 0  0.217 0 0  0.218 0 0  0.219 0 0  0.22 0 0  0.221 0 0  0.222 0 0  0.223 0 0  0.224 0 0  0.225 0 0  0.226 0 0  0.227 0 0  0.228 0 0  0.229 0 0  0.23 0 0  0.231 0 0  0.232 0 0  0.233 0 0  0.234 0 0  0.235 0 0  0.236 0 0  0.237 0 0  0.238 0 0  0.239 0 0  0.24 0 0  0.241 0 0  0.242 0 0  0.243 0 0  0.244 0 0  0.245 0 0  0.246 0 0  0.247 0 0  0.248 0 0  0.249 0 0  0.25 0 0  0.251 0 0  0.252 0 0  0.253 0 0  0.254 0 0  0.255 0 0  0.256 0 0  0.257 0 0  0.258 0 0  0.259 0 0  0.26 0 0  0.261 0 0  0.262 0 0  0.263 0 0  0.264 0 0  0.265 0 0  0.266 0 0  0.267 0 0  0.268 0 0  0.269 0 0  0.27 0 0  0.271 0 0  0.272 0 0  0.273 0 0  0.274 0 0  0.275 0 0  0.276 0 0  0.277 0 0  0.278 0 0  0.279 0 0  0.28 0 0  0.281 0 0  0.282 0 0  0.283 0 0  0.284 0 0  0.285 0 0  0.286 0 0  0.287 0 0  0.288 0 0  0.289 0 0  0.29 0 0  0.291 0 0  0.292 0 0  0.293 0 0  0.294 0 0  0.295 0 0  0.296 0 0  0.297 0 0  0.298 0 0  0.299 0 0  0.3 0 0  0.301 0 0  0.302 0 0  0.303 0 0  0.304 0 0  0.305 0 0  0.306 0 0  0.307 0 0  0.308 0 0  0.309 0 0  0.31 0 0  0.311 0 0  0.312 0 0  0.313 0 0  0.314 0 0  0.315 0 0  0.316 0 0  0.317 0 0  0.318 0 0  0.319 0 0  0.32 0 0  0.321 0 0  0.322 0 0  0.323 0 0  0.324 0 0  0.325 0 0  0.326 0 0  0.327 0 0  0.328 0 0  0.329 0 0  0.33 0 0  0.331 0 0  0.332 0 0  0.333 0 0  0.334 0 0  0.335 0 0  0.336 0 0  0.337 0 0  0.338 0 0  0.339 0 0  0.34 0 0  0.341 0 0  0.342 0 0  0.343 0 0  0.344 0 0  0.345 0 0  0.346 0 0  0.347 0 0  0.348 0 0  0.349 0 0  0.35 0 0  0.351 0 0  0.352 0 0  0.353 0 0  0.354 0 0  0.355 0 0  0.356 0 0  0.357 0 0  0.358 0 0  0.359 0 0  0.36 0 0  0.361 0 0  0.362 0 0  0.363 0 0  0.364 0 0  0.365 0 0  0.366 0 0  0.367 0 0  0.368 0 0  0.369 0 0  0.37 0 0  0.371 0 0  0.372 0 0  0.373 0 0  0.374 0 0  0.375 0 0  0.376 0 0  0.377 0 0  0.378 0 0  0.379 0 0  0.38 0 0  0.381 0 0  0.382 0 0  0.383 0 0  0.384 0 0  0.385 0 0  0.386 0 0  0.387 0 0  0.388 0 0  0.389 0 0  0.39 0 0  0.391 0 0  0.392 0 0  0.393 0 0  0.394 0 0  0.395 0 0  0.396 0 0  0.397 0 0  0.398 0 0  0.399 0 0  0.4 0 0  0.401 0 0  0.402 0 0  0.403 0 0  0.404 0 0  0.405 0 0  0.406 0 0  0.407 0 0  0.408 0 0  0.409 0 0  0.41 0 0  0.411 0 0  0.412 0 0  0.413 0 0  0.414 0 0  0.415 0 0  0.416 0 0  0.417 0 0  0.418 0 0  0.419 0 0  0.42 0 0  0.421 0 0  0.422 0 0  0.423 0 0  0.424 0 0  0.425 0 0  0.426 0 0  0.427 0 0  0.428 0 0  0.429 0 0  0.43 0 0  0.431 0 0  0.432 0 0  0.433 0 0  0.434 0 0  0.435 0 0  0.436 0 0  0.437 0 0  0.438 0 0  0.439 0 0  0.44 0 0  0.441 0 0  0.442 0 0  0.443 0 0  0.444 0 0  0.445 0 0  0.446 0 0  0.447 0 0  0.448 0 0  0.449 0 0  0.45 0 0  0.451 0 0  0.452 0 0  0.453 0 0  0.454 0 0  0.455 0 0  0.456 0 0  0.457 0 0  0.458 0 0  0.459 0 0  0.46 0 0  0.461 0 0  0.462 0 0  0.463 0 0  0.464 0 0  0.465 0 0  0.466 0 0  0.467 0 0  0.468 0 0  0.469 0 0  0.47 0 0  0.471 0 0  0.472 0 0  0.473 0 0  0.474 0 0  0.475 0 0  0.476 0 0  0.477 0 0  0.478 0 0  0.479 0 0  0.48 0 0  0.481 0 0  0.482 0 0  0.483 0 0  0.484 0 0  0.485 0 0  0.486 0 0  0.487 0 0  0.488 0 0  0.489 0 0  0.49 0 0  0.491 0 0  0.492 0 0  0.493 0 0  0.494 0 0  0.495 0 0  0.496 0 0  0.497 0 0  0.498 0 0  0.499 0 0  0.5 0 0  0.501 0 0  0.502 0 0  0.503 0 0  0.504 0 0  0.505 0 0  0.506 0 0  0.507 0 0  0.508 0 0  0.509 0 0  0.51 0 0  0.511 0 0  0.512 0 0  0.513 0 0  0.514 0 0  0.515 0 0  0.516 0 0  0.517 0 0  0.518 0 0  0.519 0 0  0.52 0 0  0.521 0 0  0.522 0 0  0.523 0 0  0.524 0 0  0.525 0 0  0.526 0 0  0.527 0 0  0.528 0 0  0.529 0 0  0.53 0 0  0.531 0 0  0.532 0 0  0.533 0 0  0.534 0 0  0.535 0 0  0.536 0 0  0.537 0 0  0.538 0 0  0.539 0 0  0.54 0 0  0.541 0 0  0.542 0 0  0.543 0 0  0.544 0 0  0.545 0 0  0.546 0 0  0.547 0 0  0.548 0 0  0.549 0 0  0.55 0 0  0.551 0 0  0.552 0 0  0.553 0 0  0.554 0 0  0.555 0 0  0.556 0 0  0.5570000000000001 0 0  0.5580000000000001 0 0  0.5590000000000001 0 0  0.5600000000000001 0 0  0.5610000000000001 0 0  0.5620000000000001 0 0  0.5629999999999999 0 0  0.5639999999999999 0 0  0.5649999999999999 0 0  0.5659999999999999 0 0  0.5669999999999999 0 0  0.5679999999999999 0 0  0.569 0 0  0.57 0 0  0.571 0 0  0.572 0 0  0.573 0 0  0.574 0 0  0.575 0 0  0.576 0 0  0.577 0 0  0.578 0 0  0.579 0 0  0.58 0 0  0.581 0 0  0.582 0 0  0.583 0 0  0.584 0 0  0.585 0 0  0.586 0 0  0.587 0 0  0.588 0 0  0.589 0 0  0.59 0 0  0.591 0 0  0.592 0 0  0.593 0 0  0.594 0 0  0.595 0 0  0.596 0 0  0.597 0 0  0.598 0 0  0.599 0 0  0.6 0 0  0.601 0 0  0.602 0 0  0.603 0 0  0.604 0 0  0.605 0 0  0.606 0 0  0.607 0 0  0.608 0 0  0.609 0 0  0.61 0 0  0.611 0 0  0.612 0 0  0.613 0 0  0.614 0 0  0.615 0 0  0.616 0 0  0.617 0 0  0.618 0 0  0.619 0 0  0.62 0 0  0.621 0 0  0.622 0 0  0.623 0 0  0.624 0 0  0.625 0 0  0.626 0 0  0.627 0 0  0.628 0 0  0.629 0 0  0.63 0 0  0.631 0 0  0.632 0 0  0.633 0 0  0.634 0 0  0.635 0 0  0.636 0 0  0.637 0 0  0.638 0 0  0.639 0 0  0.64 0 0  0.641 0 0  0.642 0 0  0.643 0 0  0.644 0 0  0.645 0 0  0.646 0 0  0.647 0 0  0.648 0 0  0.649 0 0  0.65 0 0  0.651 0 0  0.652 0 0  0.653 0 0  0.654 0 0  0.655 0 0  0.656 0 0  0.657 0 0  0.658 0 0  0.659 0 0  0.66 0 0  0.661 0 0  0.662 0 0  0.663 0 0  0.664 0 0  0.665 0 0  0.666 0 0  0.667 0 0  0.668 0 0  0.669 0 0  0.67 0 0  0.671 0 0  0.672 0 0  0.673 0 0  0.674 0 0  0.675 0 0  0.676 0 0  0.677 0 0  0.678 0 0  0.679 0 0  0.68 0 0  0.681 0 0  0.6820000000000001 0 0  0.6830000000000001 0 0  0.6840000000000001 0 0  0.6850000000000001 0 0  0.6860000000000001 0 0  0.6870000000000001 0 0  0.6879999999999999 0 0  0.6889999999999999 0 0  0.6899999999999999 0 0  0.6909999999999999 0 0  0.6919999999999999 0 0  0.6929999999999999 0 0  0.694 0 0  0.695 0 0  0.696 0 0  0.697 0 0  0.698 0 0  0.699 0 0  0.7 0 0  0.701 0 0  0.702 0 0  0.703 0 0  0.704 0 0  0.705 0 0  0.706 0 0  0.707 0 0  0.708 0 0  0.709 0 0  0.71 0 0  0.711 0 0  0.712 0 0  0.713 0 0  0.714 0 0  0.715 0 0  0.716 0 0  0.717 0 0  0.718 0 0  0.719 0 0  0.72 0 0  0.721 0 0  0.722 0 0  0.723 0 0  0.724 0 0  0.725 0 0  0.726 0 0  0.727 0 0  0.728 0 0  0.729 0 0  0.73 0 0  0.731 0 0  0.732 0 0  0.733 0 0  0.734 0 0  0.735 0 0  0.736 0 0  0.737 0 0  0.738 0 0  0.739 0 0  0.74 0 0  0.741 0 0  0.742 0 0  0.743 0 0  0.744 0 0  0.745 0 0  0.746 0 0  0.747 0 0  0.748 0 0  0.749 0 0  0.75 0 0  0.751 0 0  0.752 0 0  0.753 0 0  0.754 0 0  0.755 0 0  0.756 0 0  0.757 0 0  0.758 0 0  0.759 0 0  0.76 0 0  0.761 0 0  0.762 0 0  0.763 0 0  0.764 0 0  0.765 0 0  0.766 0 0  0.767 0 0  0.768 0 0  0.769 0 0  0.77 0 0  0.771 0 0  0.772 0 0  0.773 0 0  0.774 0 0  0.775 0 0  0.776 0 0  0.777 0 0  0.778 0 0  0.779 0 0  0.78 0 0  0.781 0 0  0.782 0 0  0.783 0 0  0.784 0 0  0.785 0 0  0.786 0 0  0.787 0 0  0.788 0 0  0.789 0 0  0.79 0 0  0.791 0 0  0.792 0 0  0.793 0 0  0.794 0 0  0.795 0 0  0.796 0 0  0.797 0 0  0.798 0 0  0.799 0 0  0.8 0 0  0.801 0 0  0.802 0 0  0.803 0 0  0.804 0 0  0.805 0 0  0.806 0 0  0.8070000000000001 0 0  0.8080000000000001 0 0  0.8090000000000001 0 0  0.8100000000000001 0 0  0.8110000000000001 0 0  0.8120000000000001 0 0  0.8129999999999999 0 0  0.8139999999999999 0 0  0.8149999999999999 0 0  0.8159999999999999 0 0  0.8169999999999999 0 0  0.8179999999999999 0 0  0.819 0 0  0.82 0 0  0.821 0 0  0.822 0 0  0.823 0 0  0.824 0 0  0.825 0 0  0.826 0 0  0.827 0 0  0.828 0 0  0.829 0 0  0.83 0 0  0.831 0 0  0.832 0 0  0.833 0 0  0.834 0 0  0.835 0 0  0.836 0 0  0.837 0 0  0.838 0 0  0.839 0 0  0.84 0 0  0.841 0 0  0
[...]
<PointData  Scalars="f_20-0"> 
<DataArray  type="Float64"  Name="f_20-0"  format="ascii">2.0000000000565121e+00  2.0000000000572191e+00  2.0000000000593570e+00  2.0000000000629745e+00  2.0000000000681601e+00  2.0000000000750333e+00  2.0000000000837570e+00  2.0000000000945364e+00  2.0000000001076237e+00  2.0000000001233262e+00  2.0000000001420077e+00  2.0000000001641021e+00  2.0000000001901213e+00  2.0000000002206626e+00  2.0000000002564300e+00  2.0000000002982379e+00  2.0000000003470397e+00  2.0000000004039413e+00  2.0000000004702270e+00  2.0000000005473830e+00  2.0000000006371379e+00  2.0000000007414878e+00  2.0000000008627450e+00  2.0000000010035870e+00  2.0000000011671029e+00  2.0000000013568680e+00  2.0000000015770074e+00  2.0000000018322890e+00  2.0000000021282114e+00  2.0000000024711198e+00  2.0000000028683322e+00  2.0000000033282852e+00  2.0000000038607020e+00  2.0000000044767816e+00  2.0000000051894213e+00  2.0000000060134675e+00  2.0000000069660029e+00  2.0000000080666789e+00  2.0000000093380912e+00  2.0000000108062146e+00  2.0000000125008932e+00  2.0000000144564090e+00  2.0000000167121201e+00  2.0000000193132053e+00  2.0000000223115002e+00  2.0000000257664583e+00  2.0000000297462432e+00  2.0000000343289783e+00  2.0000000396041728e+00  2.0000000456743345e+00  2.0000000526568229e+00  2.0000000606859474e+00  2.0000000699153606e+00  2.0000000805207794e+00  2.0000000927030803e+00  2.0000001066918149e+00  2.0000001227492077e+00  2.0000001411746950e+00  2.0000001623100832e+00  2.0000001865453938e+00  2.0000002143255053e+00  2.0000002461576756e+00  2.0000002826200789e+00  2.0000003243714715e+00  2.0000003721621398e+00  2.0000004268463067e+00  2.0000004893961627e+00  2.0000005609177380e+00  2.0000006426688652e+00  2.0000007360794672e+00  2.0000008427744991e+00  2.0000009645998471e+00  2.0000011036515781e+00  2.0000012623089432e+00  2.0000014432716178e+00  2.0000016496016886e+00  2.0000018847709842e+00  2.0000021527144018e+00  2.0000024578899702e+00  2.0000028053464605e+00  2.0000032007994735e+00  2.0000036507170282e+00  2.0000041624157898e+00  2.0000047441692188e+00  2.0000054053290723e+00  2.0000061564618345e+00  2.0000070095018572e+00  2.0000079779231732e+00  2.0000090769321845e+00  2.0000103236836666e+00  2.0000117375227928e+00  2.0000133402562112e+00  2.0000151564555120e+00  2.0000172137968160e+00  2.0000195434406054e+00  2.0000221804563840e+00  2.0000251642972331e+00  2.0000285393298896e+00  2.0000323554265713e+00  2.0000366686254329e+00  2.0000415418672772e+00  2.0000470458169297e+00  2.0000532597785825e+00  2.0000602727153720e+00  2.0000681843845038e+00  2.0000771066004286e+00  2.0000871646398015e+00  2.0000984988033816e+00  2.0001112661515421e+00  2.0001256424316973e+00  2.0001418242177809e+00  2.0001600312838979e+00  2.0001805092363774e+00  2.0002035324308132e+00  2.0002294072032227e+00  2.0002584754471804e+00  2.0002911185717780e+00  2.0003277618784887e+00  2.0003688793984766e+00  2.0004149992356814e+00  2.0004667094650186e+00  2.0005246646394039e+00  2.0005895929639750e+00  2.0006623042008682e+00  2.0007436983732458e+00  2.0008347753429399e+00  2.0009366453421165e+00  2.0010505405457484e+00  2.0011778277784016e+00  2.0013200224559378e+00  2.0014788038701083e+00  2.0016560319317018e+00  2.0018537654958712e+00  2.0020742824013817e+00  2.0023201013638374e+00  2.0025940058712379e+00  2.0028990702384979e+00  2.0032386879856174e+00  2.0036166027118458e+00  2.0040369416452917e+00  2.0045042520536671e+00  2.0050235407069268e+00  2.0056003165861451e+00  2.0062406370346100e+00  2.0069511575462049e+00  2.0077391853822961e+00  2.0086127372006111e+00  2.0095806008673471e+00  2.0106524016059519e+00  2.0118386726116868e+00  2.0131509302289219e+00  2.0146017537468319e+00  2.0162048698172388e+00  2.0179752414340624e+00  2.0199291613354435e+00  2.0220843495951524e+00  2.0244600550572169e+00  2.0270771601348789e+00  2.0299582883397389e+00  2.0331279137273350e+00  2.0366124712396205e+00  2.0404404666913547e+00  2.0446425848853647e+00  2.0492517940510204e+00  2.0543034444817367e+00  2.0598353589034830e+00  2.0658879117410542e+00  2.0725040940685839e+00  2.0797295606443309e+00  2.0876126550490701e+00  2.0962044085878211e+00  2.1055585082952515e+00  2.1157312291289396e+00  2.1267813252685941e+00  2.1387698753936508e+00  2.1517600769195440e+00  2.1658169844688104e+00  2.1810071883714883e+00  2.1973984297614173e+00  2.2150591498870997e+00  2.2340579726044858e+00  2.2544631206683476e+00  2.2763417683759086e+00  2.2997593353080394e+00  2.3247787283035266e+00  2.3514595413104042e+00  2.3798572252809445e+00  2.4100222426889193e+00  2.4419992234087493e+00  2.4758261404589441e+00  2.5115335253325135e+00  2.5491437431859723e+00  2.5886703479350768e+00  2.6301175362478113e+00  2.6734797175206233e+00  2.7187412142141612e+00  2.7658761035069430e+00  2.8148482072478016e+00  2.8656112328407164e+00  2.9181090631965629e+00  2.9722761894647154e+00  3.0280382761356472e+00  3.0853128444827367e+00  3.1440100573481771e+00  3.2040335860871392e+00  3.2652815391253958e+00  3.3276474310640873e+00  3.3910211715378495e+00  3.4552900540141636e+00  3.5203397262976379e+00  3.5860551265386302e+00  3.6523213708998723e+00  3.7190245815686467e+00  3.7860526463881956e+00  3.8532959039098151e+00  3.9206477500470047e+00  3.9880051646776176e+00  4.0552691584437408e+00  4.1223451416165497e+00  4.1891432182166506e+00  4.2555784096155875e+00  4.3215708126082149e+00  4.3870456974631287e+00  4.4519335517586232e+00  4.5161700759262153e+00  4.5796961363845714e+00  4.6424576819841770e+00  4.7044056292259935e+00  4.7654957213905851e+00  4.8256883663406498e+00  4.8849484573577557e+00  4.9432451809593925e+00  5.0005518152273503e+00  5.0568455217730746e+00  5.1121071340767186e+00  5.1663209445700105e+00  5.2194744924915835e+00  5.2715583542295334e+00  5.3225659375803840e+00  5.3724932810961281e+00  5.4213388594613683e+00  5.4691033956389541e+00  5.5157896803440156e+00  5.5614023992506620e+00  5.6059479682014457e+00  5.6494343765745461e+00  5.6918710388662870e+00  5.7332686544646263e+00  5.7736390755212526e+00  5.8129951827743547e+00  5.8513507691289952e+00  5.8887204307666403e+00  5.9251194655279269e+00  5.9605637782922791e+00  5.9950697930636938e+00  6.0286543714625820e+00  6.0613347373185515e+00  6.0931284070575753e+00  6.1240531255784312e+00  6.1541268073173709e+00  6.1833674822057390e+00  6.2117932462328609e+00  6.2394222163351261e+00  6.2662724893418558e+00  6.2923621047188192e+00  6.3177090108610141e+00  6.3423310346973620e+00  6.3662458543811002e+00  6.3894709748508767e+00  6.4120237060586378e+00  6.4339211436712347e+00  6.4551801520634466e+00  6.4758173494304527e+00  6.4958490948578600e+00  6.5152914771971027e+00  6.5341603056032787e+00  6.5524711016016353e+00  6.5702390925571104e+00  6.5874792064298484e+00  6.6042060677070262e+00  6.6204339944088710e+00  6.6361769960736030e+00  6.6514487726326186e+00  6.6662627140934756e+00  6.6806319009540385e+00  6.6945691052766767e+00  6.7080867923565677e+00  6.7211971229230469e+00  6.7339119558174643e+00  6.7462428510952970e+00  6.7582010735043099e+00  6.7697975962942323e+00  6.7810431053169431e+00  6.7919480033794626e+00  6.8025224148149874e+00  6.8127761902402257e+00  6.8227189114697246e+00  6.8323598965604999e+00  6.8417082049625195e+00  6.8507726427526965e+00  6.8595617679320853e+00  6.8680838957677128e+00  6.8763471041623223e+00  6.8843592390367201e+00  6.8921279197110250e+00  6.8996605442723578e+00  6.9069642949178398e+00  6.9140461432628708e+00  6.9209128556057440e+00  6.9275709981406610e+00  6.9340269421120544e+00  6.9402868689040274e+00  6.9463567750594439e+00  6.9522424772239173e+00  6.9579496170106250e+00  6.9634836657823938e+00  6.9688499293481208e+00  6.9740535525710623e+00  6.9790995238869886e+00  6.9839926797305374e+00  6.9887377088686327e+00  6.9933391566400394e+00  6.9978014291004538e+00  7.0021287970729196e+00  7.0063254001034521e+00  7.0103952503221265e+00  7.0143422362099734e+00  7.0181701262723086e+00  7.0218825726192335e+00  7.0254831144541914e+00  7.0289751814716057e+00  7.0323620971647367e+00  7.0356470820450276e+00  7.0388332567742058e+00  7.0419236452105940e+00  7.0449211773710818e+00  7.0478286923102598e+00  7.0506489409183137e+00  7.0533845886392408e+00  7.0560382181110874e+00  7.0586123317297806e+00  7.0611093541382850e+00  7.0635316346427457e+00  7.0658814495573203e+00  7.0681610044793475e+00  7.0703724364966005e+00  7.0725178163282481e+00  7.0745991504012196e+00  7.0766183828636251e+00  7.0785773975368649e+00  7.0804780198080559e+00  7.0823220184643469e+00  7.0841111074707630e+00  7.0858469476930397e+00  7.0875311485670816e+00  7.0891652697164442e+00  7.0907508225193974e+00  7.0922892716269521e+00  7.0937820364333355e+00  7.0952304925002130e+00  7.0966359729361015e+00  7.0979997697322625e+00  7.0993231350563528e+00  7.1006072825051447e+00  7.1018533883175250e+00  7.1030625925489881e+00  7.1042360002087710e+00  7.1053746823608410e+00  7.1064796771897836e+00  7.1075519910327198e+00  7.1085925993782899e+00  7.1096024478337538e+00  7.1105824530611805e+00  7.1115335036837344e+00  7.1124564611629637e+00  7.1133521606480441e+00  7.1142214117978666e+00  7.1150649995768172e+00  7.1158836850250857e+00  7.1166782060043712e+00  7.1174492779196949e+00  7.1181975944181781e+00  7.1189238280654479e+00  7.1196286310004577e+00  7.1203126355693822e+00  7.1209764549392922e+00  7.1216206836922478e+00  7.1222458984004584e+00  7.1228526581831311e+00  7.1234415052455846e+00  7.1240129654012447e+00  7.1245675485770468e+00  7.1251057493028105e+00  7.1256280471850983e+00  7.1261349073660893e+00  7.1266267809679178e+00  7.1271041055230278e+00  7.1275673053909028e+00  7.1280167921617235e+00  7.1284529650472956e+00  7.1288762112597377e+00  7.1292869063782724e+00  7.1296854147045545e+00  7.1300720896068830e+00  7.1304472738536919e+00  7.1308112999366502e+00  7.1311644903837133e+00  7.1315071580624716e+00  7.1318396064741005e+00  7.1321621300382336e+00  7.1324750143690281e+00  7.1327785365427694e+00  7.1330729653572220e+00  7.1333585615830639e+00  7.1336355782076231e+00  7.1339042606711907e+00  7.1341648470961481e+00  7.1344175685091544e+00  7.1346626490566276e+00  7.1349003062137193e+00  7.1351307509870479e+00  7.1353541881113456e+00  7.1355708162402705e+00  7.1357808281315398e+00  7.1359844108266115e+00  7.1361817458250671e+00  7.1363730092539024e+00  7.1365583720318311e+00  7.1367380000288740e+00  7.1369120542212539e+00  7.1370806908418487e+00  7.1372440615262702e+00  7.1374023134547349e+00  7.1375555894898319e+00  7.1377040283102779e+00  7.1378477645408038e+00  7.1379869288781919e+00  7.1381216482136338e+00  7.1382520457513889e+00  7.1383782411238599e+00  7.1385003505031221e+00  7.1386184867089426e+00  7.1387327593133287e+00  7.1388432747416060e+00  7.1389501363701209e+00  7.1390534446204796e+00  7.1391532970504139e+00  7.1392497884412291e+00  7.1393430108818823e+00  7.1394330538496424e+00  7.1395200042873999e+00  7.1396039466775614e+00  7.1396849631126136e+00  7.1397631333622886e+00  7.1398385349374438e+00  7.1399112431505793e+00  7.1399813311731455e+00  7.1400488700895606e+00  7.1401139289480833e+00  7.1401765748085655e+00  7.1402368727871455e+00  7.1402948860979896e+00  7.1403506760921367e+00  7.1404043022935877e+00  7.1404558224326884e+00  7.1405052924769672e+00  7.1405527666595203e+00  7.1405982975050772e+00  7.1406419358538704e+00  7.1406837308834286e+00  7.1407237301284425e+00  7.1407619794988220e+00  7.1407985232960822e+00  7.1408334042281778e+00  7.1408666634229201e+00  7.1408983404400868e+00  7.1409284732823410e+00  7.1409570984050879e+00  7.1409842507253378e+00  7.1410099636297169e+00  7.1410342689816559e+00  7.1410571971279007e+00  7.1410787769043775e+00  7.1410990356415018e+00  7.1411179991689622e+00  7.1411356918200823e+00  7.1411521364357435e+00  7.1411673543679699e+00  7.1411813654831562e+00  7.1411941881650192e+00  7.1412058393172426e+00  7.1412163343658852e+00  7.1412256872615387e+00  7.1412339104812421e+00  7.1412410150301975e+00  7.1412470104432666e+00  7.1412519047862357e+00  7.1412557046569267e+00  7.1412584151860656e+00  7.1412600400379596e+00  7.1412605814110011e+00  7.1412600400379613e+00  7.1412584151860674e+00  7.1412557046569320e+00  7.1412519047862393e+00  7.1412470104432684e+00  7.1412410150302010e+00  7.1412339104812457e+00  7.1412256872615405e+00  7.1412163343658905e+00  7.1412058393172453e+00  7.1411941881650209e+00  7.1411813654831588e+00  7.1411673543679699e+00  7.1411521364357453e+00  7.1411356918200832e+00  7.1411179991689639e+00  7.1410990356415001e+00  7.1410787769043766e+00  7.1410571971278989e+00  7.1410342689816577e+00  7.1410099636297186e+00  7.1409842507253396e+00  7.1409570984050861e+00  7.1409284732823384e+00  7.1408983404400850e+00  7.1408666634229165e+00  7.1408334042281743e+00  7.1407985232960769e+00  7.1407619794988202e+00  7.1407237301284407e+00  7.1406837308834303e+00  7.1406419358538704e+00  7.1405982975050755e+00  7.1405527666595185e+00  7.1405052924769672e+00  7.1404558224326884e+00  7.1404043022935895e+00  7.1403506760921376e+00  7.1402948860979896e+00  7.1402368727871464e+00  7.1401765748085664e+00  7.1401139289480851e+00  7.1400488700895641e+00  7.1399813311731490e+00  7.1399112431505811e+00  7.1398385349374420e+00  7.1397631333622895e+00  7.1396849631126100e+00  7.1396039466775596e+00  7.1395200042873972e+00  7.1394330538496416e+00  7.1393430108818823e+00  7.1392497884412291e+00  7.1391532970504139e+00  7.1390534446204787e+00  7.1389501363701191e+00  7.1388432747416060e+00  7.1387327593133278e+00  7.1386184867089435e+00  7.1385003505031221e+00  7.1383782411238590e+00  7.1382520457513881e+00  7.1381216482136329e+00  7.1379869288781919e+00  7.1378477645408029e+00  7.1377040283102779e+00  7.1375555894898302e+00  7.1374023134547340e+00  7.1372440615262702e+00  7.1370806908418514e+00  7.1369120542212583e+00  7.1367380000288776e+00  7.1365583720318355e+00  7.1363730092539024e+00  7.1361817458250680e+00  7.1359844108266106e+00  7.1357808281315371e+00  7.1355708162402669e+00  7.1353541881113438e+00  7.1351307509870443e+00  7.1349003062137166e+00  7.1346626490566241e+00  7.1344175685091527e+00  7.1341648470961454e+00  7.1339042606711880e+00  7.1336355782076213e+00  7.1333585615830595e+00  7.1330729653572185e+00  7.1327785365427658e+00  7.1324750143690281e+00  7.1321621300382327e+00  7.1318396064741005e+00  7.1315071580624698e+00  7.1311644903837133e+00  7.1308112999366511e+00  7.1304472738536928e+00  7.1300720896068830e+00  7.1296854147045545e+00  7.1292869063782733e+00  7.1288762112597359e+00  7.1284529650472939e+00  7.1280167921617226e+00  7.1275673053909028e+00  7.1271041055230278e+00  7.1266267809679187e+00  7.1261349073660849e+00  7.1256280471850966e+00  7.1251057493028078e+00  7.1245675485770441e+00  7.1240129654012403e+00  7.1234415052455846e+00  7.1228526581831320e+00  7.1222458984004611e+00  7.1216206836922495e+00  7.1209764549392958e+00  7.1203126355693840e+00  7.1196286310004622e+00  7.1189238280654532e+00  7.1181975944181861e+00  7.1174492779197021e+00  7.1166782060043738e+00  7.1158836850250902e+00  7.1150649995768189e+00  7.1142214117978657e+00  7.1133521606480423e+00  7.1124564611629637e+00  7.1115335036837370e+00  7.1105824530611832e+00  7.1096024478337547e+00  7.1085925993782881e+00  7.1075519910327163e+00  7.1064796771897836e+00  7.1053746823608428e+00  7.1042360002087692e+00  7.1030625925489872e+00  7.1018533883175250e+00  7.1006072825051447e+00  7.0993231350563528e+00  7.0979997697322617e+00  7.0966359729361015e+00  7.0952304925002130e+00  7.0937820364333355e+00  7.0922892716269521e+00  7.0907508225193956e+00  7.0891652697164442e+00  7.0875311485670833e+00  7.0858469476930415e+00  7.0841111074707639e+00  7.0823220184643469e+00  7.0804780198080559e+00  7.0785773975368649e+00  7.0766183828636242e+00  7.0745991504012204e+00  7.0725178163282489e+00  7.0703724364966032e+00  7.0681610044793510e+00  7.0658814495573230e+00  7.0635316346427510e+00  7.0611093541382859e+00  7.0586123317297815e+00  7.0560382181110874e+00  7.0533845886392408e+00  7.0506489409183137e+00  7.0478286923102589e+00  7.0449211773710800e+00  7.0419236452105922e+00  7.0388332567742022e+00  7.0356470820450268e+00  7.0323620971647376e+00  7.0289751814716039e+00  7.0254831144541887e+00  7.0218825726192327e+00  7.0181701262723060e+00  7.0143422362099725e+00  7.0103952503221283e+00  7.0063254001034512e+00  7.0021287970729160e+00  6.9978014291004520e+00  6.9933391566400394e+00  6.9887377088686335e+00  6.9839926797305365e+00  6.9790995238869877e+00  6.9740535525710605e+00  6.9688499293481199e+00  6.9634836657823946e+00  6.9579496170106268e+00  6.9522424772239182e+00  6.9463567750594448e+00  6.9402868689040300e+00  6.9340269421120597e+00  6.9275709981406663e+00  6.9209128556057484e+00  6.9140461432628753e+00  6.9069642949178451e+00  6.8996605442723622e+00  6.8921279197110286e+00  6.8843592390367210e+00  6.8763471041623223e+00  6.8680838957677128e+00  6.8595617679320862e+00  6.8507726427527009e+00  6.8417082049625240e+00  6.8323598965605026e+00  6.8227189114697255e+00  6.8127761902402293e+00  6.8025224148149883e+00  6.7919480033794617e+00  6.7810431053169440e+00  6.7697975962942314e+00  6.7582010735043099e+00  6.7462428510952979e+00  6.7339119558174669e+00  6.7211971229230523e+00  6.7080867923565686e+00  6.6945691052766767e+00  6.6806319009540385e+00  6.6662627140934765e+00  6.6514487726326204e+00  6.6361769960736083e+00  6.6204339944088764e+00  6.6042060677070307e+00  6.5874792064298546e+00  6.5702390925571157e+00  6.5524711016016388e+00  6.5341603056032858e+00  6.5152914771971062e+00  6.4958490948578662e+00  6.4758173494304536e+00  6.4551801520634493e+00  6.4339211436712391e+00  6.4120237060586396e+00  6.3894709748508767e+00  6.3662458543811011e+00  6.3423310346973638e+00  6.3177090108610141e+00  6.2923621047188165e+00  6.2662724893418549e+00  6.2394222163351261e+00  6.2117932462328609e+00  6.1833674822057363e+00  6.1541268073173709e+00  6.1240531255784330e+00  6.0931284070575797e+00  6.0613347373185551e+00  6.0286543714625829e+00  5.9950697930636965e+00  5.9605637782922809e+00  5.9251194655279322e+00  5.8887204307666448e+00  5.8513507691289970e+00  5.8129951827743565e+00  5.7736390755212561e+00  5.7332686544646263e+00  5.6918710388662914e+00  5.6494343765745496e+00  5.6059479682014484e+00  5.5614023992506665e+00  5.5157896803440174e+00  5.4691033956389603e+00  5.4213388594613718e+00  5.3724932810961308e+00  5.3225659375803893e+00  5.2715583542295414e+00  5.2194744924915897e+00  5.1663209445700184e+00  5.1121071340767230e+00  5.0568455217730754e+00  5.0005518152273538e+00  4.9432451809593969e+00  4.8849484573577620e+00  4.8256883663406525e+00  4.7654957213905904e+00  4.7044056292259997e+00  4.6424576819841832e+00  4.5796961363845750e+00  4.5161700759262207e+00  4.4519335517586258e+00  4.3870456974631296e+00  4.3215708126082149e+00  4.2555784096155884e+00  4.1891432182166515e+00  4.1223451416165524e+00  4.0552691584437444e+00  3.9880051646776211e+00  3.9206477500470083e+00  3.8532959039098182e+00  3.7860526463881978e+00  3.7190245815686489e+00  3.6523213708998732e+00  3.5860551265386325e+00  3.5203397262976388e+00  3.4552900540141636e+00  3.3910211715378500e+00  3.3276474310640873e+00  3.2652815391253958e+00  3.2040335860871401e+00  3.1440100573481757e+00  3.0853128444827371e+00  3.0280382761356455e+00  2.9722761894647145e+00  2.9181090631965629e+00  2.8656112328407164e+00  2.8148482072478016e+00  2.7658761035069444e+00  2.7187412142141625e+00  2.6734797175206246e+00  2.6301175362478126e+00  2.5886703479350786e+00  2.5491437431859727e+00  2.5115335253325139e+00  2.4758261404589441e+00  2.4419992234087489e+00  2.4100222426889233e+00  2.3798572252809489e+00  2.3514595413104100e+00  2.3247787283035315e+00  2.2997593353080426e+00  2.2763417683759117e+00  2.2544631206683494e+00  2.2340579726044871e+00  2.2150591498871020e+00  2.1973984297614200e+00  2.1810071883714905e+00  2.1658169844688113e+00  2.1517600769195444e+00  2.1387698753936517e+00  2.1267813252685959e+00  2.1157312291289436e+00  2.1055585082952