<?xml version="1.0"?>
<VTKFile type="UnstructuredGrid"  version="0.1"  >
<UnstructuredGrid>
<Piece  NumberOfPoints="1001" NumberOfCells="1000">
<Points>
<DataArray  type="Float64"  NumberOfComponents="3"  format="ascii">0 0 0  0.001 0 0  0.002 0 0  0.003 0 0  0.004 0 0  0.005 0 0  0.006 0 0  0.007 0 0  0.008 0 0  0.008999999999999999 0 0  0.01 0 0  0.011 0 0  0.012 0 0  0.013 0 0  0.014 0 0  0.015 0 0  0.016 0 0  0.017 0 0  0.018 0 0  0.019 0 0  0.02 0 0  0.021 0 0  0.022 0 0  0.023 0 0  0.024 0 0  0.025 0 0  0.026 0 0  0.027 0 0  0.028 0 0  0.029 0 0  0.03 0 0  0.031 0 0  0.032 0 0  0.033 0 0  0.034 0 0  0.035 0 0  0.036 0 0  0.037 0 0  0.038 0 0  0.039 0 0  0.04 0 0  0.041 0 0  0.042 0 0  0.043 0 0  0.044 0 0  0.045 0 0  0.046 0 0  0.047 0 0  0.048 0 0  0.049 0 0  0.05 0 0  0.051 0 0  0.052 0 0  0.053 0 0  0.054 0 0  0.055 0 0  0.056 0 0  0.057 0 0  0.058 0 0  0.059 0 0  0.06 0 0  0.061 0 0  0.062 0 0  0.063 0 0  0.064 0 0  0.065 0 0  0.066 0 0  0.067 0 0  0.068 0 0  0.06900000000000001 0 0  0.07000000000000001 0 0  0.07099999999999999 0 0  0.07199999999999999 0 0  0.073 0 0  0.074 0 0  0.075 0 0  0.076 0 0  0.077 0 0  0.078 0 0  0.079 0 0  0.08 0 0  0.081 0 0  0.082 0 0  0.083 0 0  0.08400000000000001 0 0  0.08500000000000001 0 0  0.08599999999999999 0 0  0.08699999999999999 0 0  0.08799999999999999 0 0  0.089 0 0  0.09 0 0  0.091 0 0  0.092 0 0  0.093 0 0  0.094 0 0  0.095 0 0  0.096 0 0  0.097 0 0  0.098 0 0  0.099 0 0  0.1 0 0  0.101 0 0  0.102 0 0  0.103 0 0  0.104 0 0  0.105 0 0  0.106 0 0  0.107 0 0  0.108 0 0  0.109 0 0  0.11 0 0  0.111 0 0  0.112 0 0  0.113 0 0  0.114 0 0  0.115 0 0  0.116 0 0  0.117 0 0  0.118 0 0  0.119 0 0  0.12 0 0  0.121 0 0  0.122 0 0  0.123 0 0  0.124 0 0  0.125 0 0  0.126 0 0  0.127 0 0  0.128 0 0  0.129 0 0  0.13 0 0  0.131 0 0  0.132 0 0  0.133 0 0  0.134 0 0  0.135 0 0  0.136 0 0  0.137 0 0  0.138 0 0  0.139 0 0  0.14 0 0  0.141 0 0  0.142 0 0  0.143 0 0  0.144 0 0  0.145 0 0  0.146 0 0  0.147 0 0  0.148 0 0  0.149 0 0  0.15 0 0  0.151 0 0  0.152 0 0  0.153 0 0  0.154 0 0  0.155 0 0  0.156 0 0  0.157 0 0  0.158 0 0  0.159 0 0  0.16 0 0  0.161 0 0  0.162 0 0  0.163 0 0  0.164 0 0  0.165 0 0  0.166 0 0  0.167 0 0  0.168 0 0  0.169 0 0  0.17 0 0  0.171 0 0  0.172 0 0  0.173 0 0  0.174 0 0  0.175 0 0  0.176 0 0  0.177 0 0  0.178 0 0  0.179 0 0  0.18 0 0  0.181 0 0  0.182 0 0  0.183 0 0  0.184 0 0  0.185 0 0  0.186 0 0  0.187 0 0  0.188 0 0  0.189 0 0  0.19 0 0  0.191 0 0  0.192 0 0  0.193 0 0  0.194 0 0  0.195 0 0  0.196 0 0  0.197 0 0  0.198 0 0  0.199 0 0  0.2 0 0  0.201 0 0  0.202 0 0  0.203 0 0  0.204 0 0  0.205 0 0  0.206 0 0  0.207 0 0  0.208 0 0  0.209 0 0  0.21 0 0  0.211 0 0  0.212 0 0  0.213 0 0  0.214 0 0  0.215 0 0  0.216 0 0  0.217 0 0  0.218 0 0  0.219 0 0  0.22 0 0  0.221 0 0  0.222 0 0  0.223 0 0  0.224 0 0  0.225 0 0  0.226 0 0  0.227 0 0  0.228 0 0  0.229 0 0  0.23 0 0  0.231 0 0  0.232 0 0  0.233 0 0  0.234 0 0  0.235 0 0  0.236 0 0  0.237 0 0  0.238 0 0  0.239 0 0  0.24 0 0  0.241 0 0  0.242 0 0  0.243 0 0  0.244 0 0  0.245 0 0  0.246 0 0  0.247 0 0  0.248 0 0  0.249 0 0  0.25 0 0  0.251 0 0  0.252 0 0  0.253 0 0  0.254 0 0  0.255 0 0  0.256 0 0  0.257 0 0  0.258 0 0  0.259 0 0  0.26 0 0  0.261 0 0  0.262 0 0  0.263 0 0  0.264 0 0  0.265 0 0  0.266 0 0  0.267 0 0  0.268 0 0  0.269 0 0  0.27 0 0  0.271 0 0  0.272 0 0  0.273 0 0  0.274 0 0  0.275 0 0  0.276 0 0  0.277 0 0  0.278 0 0  0.279 0 0  0.28 0 0  0.281 0 0  0.282 0 0  0.283 0 0  0.284 0 0  0.285 0 0  0.286 0 0  0.287 0 0  0.288 0 0  0.289 0 0  0.29 0 0  0.291 0 0  0.292 0 0  0.293 0 0  0.294 0 0  0.295 0 0  0.296 0 0  0.297 0 0  0.298 0 0  0.299 0 0  0.3 0 0  0.301 0 0  0.302 0 0  0.303 0 0  0.304 0 0  0.305 0 0  0.306 0 0  0.307 0 0  0.308 0 0  0.309 0 0  0.31 0 0  0.311 0 0  0.312 0 0  0.313 0 0  0.314 0 0  0.315 0 0  0.316 0 0  0.317 0 0  0.318 0 0  0.319 0 0  0.32 0 0  0.321 0 0  0.322 0 0  0.323 0 0  0.324 0 0  0.325 0 0  0.326 0 0  0.327 0 0  0.328 0 0  0.329 0 0  0.33 0 0  0.331 0 0  0.332 0 0  0.333 0 0  0.334 0 0  0.335 0 0  0.336 0 0  0.337 0 0  0.338 0 0  0.339 0 0  0.34 0 0  0.341 0 0  0.342 0 0  0.343 0 0  0.344 0 0  0.345 0 0  0.346 0 0  0.347 0 0  0.348 0 0  0.349 0 0  0.35 0 0  0.351 0 0  0.352 0 0  0.353 0 0  0.354 0 0  0.355 0 0  0.356 0 0  0.357 0 0  0.358 0 0  0.359 0 0  0.36 0 0  0.361 0 0  0.362 0 0  0.363 0 0  0.364 0 0  0.365 0 0  0.366 0 0  0.367 0 0  0.368 0 0  0.369 0 0  0.37 0 0  0.371 0 0  0.372 0 0  0.373 0 0  0.374 0 0  0.375 0 0  0.376 0 0  0.377 0 0  0.378 0 0  0.379 0 0  0.38 0 0  0.381 0 0  0.382 0 0  0.383 0 0  0.384 0 0  0.385 0 0  0.386 0 0  0.387 0 0  0.388 0 0  0.389 0 0  0.39 0 0  0.391 0 0  0.392 0 0  0.393 0 0  0.394 0 0  0.395 0 0  0.396 0 0  0.397 0 0  0.398 0 0  0.399 0 0  0.4 0 0  0.401 0 0  0.402 0 0  0.403 0 0  0.404 0 0  0.405 0 0  0.406 0 0  0.407 0 0  0.408 0 0  0.409 0 0  0.41 0 0  0.411 0 0  0.412 0 0  0.413 0 0  0.414 0 0  0.415 0 0  0.416 0 0  0.417 0 0  0.418 0 0  0.419 0 0  0.42 0 0  0.421 0 0  0.422 0 0  0.423 0 0  0.424 0 0  0.425 0 0  0.426 0 0  0.427 0 0  0.428 0 0  0.429 0 0  0.43 0 0  0.431 0 0  0.432 0 0  0.433 0 0  0.434 0 0  0.435 0 0  0.436 0 0  0.437 0 0  0.438 0 0  0.439 0 0  0.44 0 0  0.441 0 0  0.442 0 0  0.443 0 0  0.444 0 0  0.445 0 0  0.446 0 0  0.447 0 0  0.448 0 0  0.449 0 0  0.45 0 0  0.451 0 0  0.452 0 0  0.453 0 0  0.454 0 0  0.455 0 0  0.456 0 0  0.457 0 0  0.458 0 0  0.459 0 0  0.46 0 0  0.461 0 0  0.462 0 0  0.463 0 0  0.464 0 0  0.465 0 0  0.466 0 0  0.467 0 0  0.468 0 0  0.469 0 0  0.47 0 0  0.471 0 0  0.472 0 0  0.473 0 0  0.474 0 0  0.475 0 0  0.476 0 0  0.477 0 0  0.478 0 0  0.479 0 0  0.48 0 0  0.481 0 0  0.482 0 0  0.483 0 0  0.484 0 0  0.485 0 0  0.486 0 0  0.487 0 0  0.488 0 0  0.489 0 0  0.49 0 0  0.491 0 0  0.492 0 0  0.493 0 0  0.494 0 0  0.495 0 0  0.496 0 0  0.497 0 0  0.498 0 0  0.499 0 0  0.5 0 0  0.501 0 0  0.502 0 0  0.503 0 0  0.504 0 0  0.505 0 0  0.506 0 0  0.507 0 0  0.508 0 0  0.509 0 0  0.51 0 0  0.511 0 0  0.512 0 0  0.513 0 0  0.514 0 0  0.515 0 0  0.516 0 0  0.517 0 0  0.518 0 0  0.519 0 0  0.52 0 0  0.521 0 0  0.522 0 0  0.523 0 0  0.524 0 0  0.525 0 0  0.526 0 0  0.527 0 0  0.528 0 0  0.529 0 0  0.53 0 0  0.531 0 0  0.532 0 0  0.533 0 0  0.534 0 0  0.535 0 0  0.536 0 0  0.537 0 0  0.538 0 0  0.539 0 0  0.54 0 0  0.541 0 0  0.542 0 0  0.543 0 0  0.544 0 0  0.545 0 0  0.546 0 0  0.547 0 0  0.548 0 0  0.549 0 0  0.55 0 0  0.551 0 0  0.552 0 0  0.553 0 0  0.554 0 0  0.555 0 0  0.556 0 0  0.5570000000000001 0 0  0.5580000000000001 0 0  0.5590000000000001 0 0  0.5600000000000001 0 0  0.5610000000000001 0 0  0.5620000000000001 0 0  0.5629999999999999 0 0  0.5639999999999999 0 0  0.5649999999999999 0 0  0.5659999999999999 0 0  0.5669999999999999 0 0  0.5679999999999999 0 0  0.569 0 0  0.57 0 0  0.571 0 0  0.572 0 0  0.573 0 0  0.574 0 0  0.575 0 0  0.576 0 0  0.577 0 0  0.578 0 0  0.579 0 0  0.58 0 0  0.581 0 0  0.582 0 0  0.583 0 0  0.584 0 0  0.585 0 0  0.586 0 0  0.587 0 0  0.588 0 0  0.589 0 0  0.59 0 0  0.591 0 0  0.592 0 0  0.593 0 0  0.594 0 0  0.595 0 0  0.596 0 0  0.597 0 0  0.598 0 0  0.599 0 0  0.6 0 0  0.601 0 0  0.602 0 0  0.603 0 0  0.604 0 0  0.605 0 0  0.606 0 0  0.607 0 0  0.608 0 0  0.609 0 0  0.61 0 0  0.611 0 0  0.612 0 0  0.613 0 0  0.614 0 0  0.615 0 0  0.616 0 0  0.617 0 0  0.618 0 0  0.619 0 0  0.62 0 0  0.621 0 0  0.622 0 0  0.623 0 0  0.624 0 0  0.625 0 0  0.626 0 0  0.627 0 0  0.628 0 0  0.629 0 0  0.63 0 0  0.631 0 0  0.632 0 0  0.633 0 0  0.634 0 0  0.635 0 0  0.636 0 0  0.637 0 0  0.638 0 0  0.639 0 0  0.64 0 0  0.641 0 0  0.642 0 0  0.643 0 0  0.644 0 0  0.645 0 0  0.646 0 0  0.647 0 0  0.648 0 0  0.649 0 0  0.65 0 0  0.651 0 0  0.652 0 0  0.653 0 0  0.654 0 0  0.655 0 0  0.656 0 0  0.657 0 0  0.658 0 0  0.659 0 0  0.66 0 0  0.661 0 0  0.662 0 0  0.663 0 0  0.664 0 0  0.665 0 0  0.666 0 0  0.667 0 0  0.668 0 0  0.669 0 0  0.67 0 0  0.671 0 0  0.672 0 0  0.673 0 0  0.674 0 0  0.675 0 0  0.676 0 0  0.677 0 0  0.678 0 0  0.679 0 0  0.68 0 0  0.681 0 0  0.6820000000000001 0 0  0.6830000000000001 0 0  0.6840000000000001 0 0  0.6850000000000001 0 0  0.6860000000000001 0 0  0.6870000000000001 0 0  0.6879999999999999 0 0  0.6889999999999999 0 0  0.6899999999999999 0 0  0.6909999999999999 0 0  0.6919999999999999 0 0  0.6929999999999999 0 0  0.694 0 0  0.695 0 0  0.696 0 0  0.697 0 0  0.698 0 0  0.699 0 0  0.7 0 0  0.701 0 0  0.702 0 0  0.703 0 0  0.704 0 0  0.705 0 0  0.706 0 0  0.707 0 0  0.708 0 0  0.709 0 0  0.71 0 0  0.711 0 0  0.712 0 0  0.713 0 0  0.714 0 0  0.715 0 0  0.716 0 0  0.717 0 0  0.718 0 0  0.719 0 0  0.72 0 0  0.721 0 0  0.722 0 0  0.723 0 0  0.724 0 0  0.725 0 0  0.726 0 0  0.727 0 0  0.728 0 0  0.729 0 0  0.73 0 0  0.731 0 0  0.732 0 0  0.733 0 0  0.734 0 0  0.735 0 0  0.736 0 0  0.737 0 0  0.738 0 0  0.739 0 0  0.74 0 0  0.741 0 0  0.742 0 0  0.743 0 0  0.744 0 0  0.745 0 0  0.746 0 0  0.747 0 0  0.748 0 0  0.749 0 0  0.75 0 0  0.751 0 0  0.752 0 0  0.753 0 0  0.754 0 0  0.755 0 0  0.756 0 0  0.757 0 0  0.758 0 0  0.759 0 0  0.76 0 0  0.761 0 0  0.762 0 0  0.763 0 0  0.764 0 0  0.765 0 0  0.766 0 0  0.767 0 0  0.768 0 0  0.769 0 0  0.77 0 0  0.771 0 0  0.772 0 0  0.773 0 0  0.774 0 0  0.775 0 0  0.776 0 0  0.777 0 0  0.778 0 0  0.779 0 0  0.78 0 0  0.781 0 0  0.782 0 0  0.783 0 0  0.784 0 0  0.785 0 0  0.786 0 0  0.787 0 0  0.788 0 0  0.789 0 0  0.79 0 0  0.791 0 0  0.792 0 0  0.793 0 0  0.794 0 0  0.795 0 0  0.796 0 0  0.797 0 0  0.798 0 0  0.799 0 0  0.8 0 0  0.801 0 0  0.802 0 0  0.803 0 0  0.804 0 0  0.805 0 0  0.806 0 0  0.8070000000000001 0 0  0.8080000000000001 0 0  0.8090000000000001 0 0  0.8100000000000001 0 0  0.8110000000000001 0 0  0.8120000000000001 0 0  0.8129999999999999 0 0  0.8139999999999999 0 0  0.8149999999999999 0 0  0.8159999999999999 0 0  0.8169999999999999 0 0  0.8179999999999999 0 0  0.819 0 0  0.82 0 0  0.821 0 0  0.822 0 0  0.823 0 0  0.824 0 0  0.825 0 0  0.826 0 0  0.827 0 0  0.828 0 0  0.829 0 0  0.83 0 0  0.831 0 0  0.832 0 0  0.833 0 0  0.834 0 0  0.835 0 0  0.836 0 0  0.837 0 0  0.838 0 0  0.839 0 0  0.84 0 0  0.841 0 0  0
[...]
<PointData  Scalars="f_20-0"> 
<DataArray  type="Float64"  Name="f_20-0"  format="ascii">2.0000000057736833e+00  2.0000000058336802e+00  2.0000000060148433e+00  2.0000000063207057e+00  2.0000000067572308e+00  2.0000000073329169e+00  2.0000000080589482e+00  2.0000000089494083e+00  2.0000000100215258e+00  2.0000000112959881e+00  2.0000000127973130e+00  2.0000000145542862e+00  2.0000000166004792e+00  2.0000000189748461e+00  2.0000000217224110e+00  2.0000000248950651e+00  2.0000000285524813e+00  2.0000000327631544e+00  2.0000000376055951e+00  2.0000000431696914e+00  2.0000000495582611e+00  2.0000000568888163e+00  2.0000000652955681e+00  2.0000000749317128e+00  2.0000000859720175e+00  2.0000000986157644e+00  2.0000001130900857e+00  2.0000001296537424e+00  2.0000001486014103e+00  2.0000001702685379e+00  2.0000001950368391e+00  2.0000002233405150e+00  2.0000002556732941e+00  2.0000002925963898e+00  2.0000003347474982e+00  2.0000003828509687e+00  2.0000004377292884e+00  2.0000005003160553e+00  2.0000005716706166e+00  2.0000006529945891e+00  2.0000007456504916e+00  2.0000008511827554e+00  2.0000009713413998e+00  2.0000011081087106e+00  2.0000012637292852e+00  2.0000014407438544e+00  2.0000016420273456e+00  2.0000018708317087e+00  2.0000021308340590e+00  2.0000024261908091e+00  2.0000027615984868e+00  2.0000031423620479e+00  2.0000035744715756e+00  2.0000040646883668e+00  2.0000046206415081e+00  2.0000052509361912e+00  2.0000059652751259e+00  2.0000067745946044e+00  2.0000076912169091e+00  2.0000087290209572e+00  2.0000099036333023e+00  2.0000112326418220e+00  2.0000127358346953e+00  2.0000144354675466e+00  2.0000163565619706e+00  2.0000185272389674e+00  2.0000209790912282e+00  2.0000237475986169e+00  2.0000268725916790e+00  2.0000303987685015e+00  2.0000343762708024e+00  2.0000388613258040e+00  2.0000439169610509e+00  2.0000496138001420e+00  2.0000560309481403e+00  2.0000632569763228e+00  2.0000713910169394e+00  2.0000805439797125e+00  2.0000908399030064e+00  2.0001024174538751e+00  2.0001154315926346e+00  2.0001300554191133e+00  2.0001464822194581e+00  2.0001649277341631e+00  2.0001856326700347e+00  2.0002088654809214e+00  2.0002349254444276e+00  2.0002641460643895e+00  2.0002968988316328e+00  2.0003335973785576e+00  2.0003747020663241e+00  2.0004207250468893e+00  2.0004722358459475e+00  2.0005298675168470e+00  2.0005943234199086e+00  2.0006663846862232e+00  2.0007469184300044e+00  2.0008368867788442e+00  2.0009373567968813e+00  2.0010495113818854e+00  2.0011746612235508e+00  2.0013142579169738e+00  2.0014699083322443e+00  2.0016433903483581e+00  2.0018366700672043e+00  2.0020519206311249e+00  2.0022915427755006e+00  2.0025581872558424e+00  2.0028547792968641e+00  2.0031845452189665e+00  2.0035510414051547e+00  2.0039581857786510e+00  2.0044102919679250e+00  2.0049121063415090e+00  2.0054688480992477e+00  2.0060862526093395e+00  2.0067706181811324e+00  2.0075288564616156e+00  2.0083685466382910e+00  2.0092979936219209e+00  2.0103262903686363e+00  2.0114633844811718e+00  2.0127201492024138e+00  2.0141084588798868e+00  2.0156412689357195e+00  2.0173327003216994e+00  2.0191981283714013e+00  2.0212542758793668e+00  2.0235193101389228e+00  2.0260129435534684e+00  2.0287565372988516e+00  2.0317732073548664e+00  2.0350879320398523e+00  2.0387276599724244e+00  2.0427214171470993e+00  2.0471004115454852e+00  2.0518981334119215e+00  2.0571504490033488e+00  2.0628956852806106e+00  2.0691747026469938e+00  2.0760309524664704e+00  2.0835105157185057e+00  2.0916621187809974e+00  2.1005371219941256e+00  2.1101894763653148e+00  2.1206756435527723e+00  2.1320544741393834e+00  2.1443870392104607e+00  2.1577364104106613e+00  2.1721673840109070e+00  2.1877461450979401e+00  2.2045398688364601e+00  2.2226162568691454e+00  2.2420430083261143e+00  2.2628872266113658e+00  2.2852147651014243e+00  2.3090895170918313e+00  2.3345726576989811e+00  2.3617218478830568e+00  2.3905904131952731e+00  2.4212265121431438e+00  2.4536723110724292e+00  2.4879631840407086e+00  2.5241269571687819e+00  2.5621832172840002e+00  2.6021427042260714e+00  2.6440068049238241e+00  2.6877671652728052e+00  2.7334054330037132e+00  2.7808931412389279e+00  2.8301917384443329e+00  2.8812527661890250e+00  2.9340181817418589e+00  2.9884208182830183e+00  3.0443849716018678e+00  3.1018270987736902e+00  3.1606566116021586e+00  3.2207767456782697e+00  3.2820854847841971e+00  3.3444765200555873e+00  3.4078402237554171e+00  3.4720646186167543e+00  3.5370363253636401e+00  3.6026414730864271e+00  3.6687665594929002e+00  3.7352992505470328e+00  3.8021291115227749e+00  3.8691482639384187e+00  3.9362519651153893e+00  4.0033391091632682e+00  4.0703126499907745e+00  4.1370799484592089e+00  4.2035530470261087e+00  4.2696488761807112e+00  4.3352893976675624e+00  4.4004016899550980e+00  4.4649179816613431e+00  4.5287756387295861e+00  4.5919171110840358e+00  4.6542898443180221e+00  4.7158461617025571e+00  4.7765431214749849e+00  4.8363423539971384e+00  4.8952098829772641e+00  4.9531159345448410e+00  5.0100347375638652e+00  5.0659443181769515e+00  5.1208262911968667e+00  5.1746656506082616e+00  5.2274505611135806e+00  5.2791721523552768e+00  5.3298243171721360e+00  5.3794035150005346e+00  5.4279085813112173e+00  5.4753405437772988e+00  5.5217024456982760e+00  5.5669991770561555e+00  5.6112373134513378e+00  5.6544249630563277e+00  5.6965716216321391e+00  5.7376880355743012e+00  5.7777860728906063e+00  5.8168786019597984e+00  5.8549793778776440e+00  5.8921029361632753e+00  5.9282644935726339e+00  5.9634798557467823e+00  5.9977653314092452e+00  6.0311376528180407e+00  6.0636139021734117e+00  6.0952114436812979e+00  6.1259478609742253e+00  6.1558408995954013e+00  6.1849084142577251e+00  6.2131683205967816e+00  6.2406385511455778e+00  6.2673370152681507e+00  6.2932815627992227e+00  6.3184899511477681e+00  6.3429798156329404e+00  6.3667686428318451e+00  6.3898737467295126e+00  6.4123122474721823e+00  6.4341010525357660e+00  6.4552568401316357e+00  6.4757960446820890e+00  6.4957348442076093e+00  6.5150891494774852e+00  6.5338745947844794e+00  6.5521065302128472e+00  6.5698000152774494e+00  6.5869698138194899e+00  6.6036303900520403e+00  6.6197959056556153e+00  6.6354802178308425e+00  6.6506968782216749e+00  6.6654591326286212e+00  6.6797799214372082e+00  6.6936718806922011e+00  6.7071473437531957e+00  6.7202183434718927e+00  6.7328966148358580e+00  6.7451935980277007e+00  6.7571204418525097e+00  6.7686880074900708e+00  6.7799068725317353e+00  6.7907873352650592e+00  6.8013394191722867e+00  6.8115728776114750e+00  6.8214971986517519e+00  6.8311216100364591e+00  6.8404550842502863e+00  6.8495063436685397e+00  6.8582838657686231e+00  6.8667958883855471e+00  6.8750504149950871e+00  6.8830552200095818e+00  6.8908178540729299e+00  6.8983456493425725e+00  6.9056457247475231e+00  6.9127249912126398e+00  6.9195901568402984e+00  6.9262477320417135e+00  6.9327040346109383e+00  6.9389651947354309e+00  6.9450371599378231e+00  6.9509256999442384e+00  6.9566364114750598e+00  6.9621747229547735e+00  6.9675458991378640e+00  6.9727550456484355e+00  6.9778071134314263e+00  6.9827069031139697e+00  6.9874590692755563e+00  6.9920681246262104e+00  6.9965384440920459e+00  7.0008742688079142e+00  7.0050797100171032e+00  7.0091587528782435e+00  7.0131152601798155e+00  7.0169529759627824e+00  7.0206755290521183e+00  7.0242864364980377e+00  7.0277891069279601e+00  7.0311868438103069e+00  7.0344828486313054e+00  7.0376802239861282e+00  7.0407819765857127e+00  7.0437910201806844e+00  7.0467101784038713e+00  7.0495421875329614e+00  7.0522896991748123e+00  7.0549552828730624e+00  7.0575414286406373e+00  7.0600505494187820e+00  7.0624849834642509e+00  7.0648469966663612e+00  7.0671387847954890e+00  7.0693624756847049e+00  7.0715201313461780e+00  7.0736137500239815e+00  7.0756452681849167e+00  7.0776165624489771e+00  7.0795294514610001e+00  7.0813856977051293e+00  7.0831870092635825e+00  7.0849350415212804e+00  7.0866313988178247e+00  7.0882776360482893e+00  7.0898752602142840e+00  7.0914257319266989e+00  7.0929304668615245e+00  7.0943908371701205e+00  7.0958081728452260e+00  7.0971837630440779e+00  7.0985188573698430e+00  7.0998146671126632e+00  7.1010723664514899e+00  7.1022930936179209e+00  7.1034779520231544e+00  7.1046280113492530e+00  7.1057443086057361e+00  7.1068278491526238e+00  7.1078796076909381e+00  7.1089005292217236e+00  7.1098915299744885e+00  7.1108534983061000e+00  7.1117872955710197e+00  7.1126937569637896e+00  7.1135736923346773e+00  7.1144278869792483e+00  7.1152571024028193e+00  7.1160620770604570e+00  7.1168435270734118e+00  7.1176021469226729e+00  7.1183386101204187e+00  7.1190535698600215e+00  7.1197476596453830e+00  7.1204214939001433e+00  7.1210756685575474e+00  7.1217107616314719e+00  7.1223273337693120e+00  7.1229259287872653e+00  7.1235070741885860e+00  7.1240712816653877e+00  7.1246190475845115e+00  7.1251508534579635e+00  7.1256671663984417e+00  7.1261684395604483e+00  7.1266551125673994e+00  7.1271276119252676e+00  7.1275863514231323e+00  7.1280317325210918e+00  7.1284641447259265e+00  7.1288839659549597e+00  7.1292915628884268e+00  7.1296872913108036e+00  7.1300714964413920e+00  7.1304445132545444e+00  7.1308066667898569e+00  7.1311582724526472e+00  7.1314996363050698e+00  7.1318310553480968e+00  7.1321528177947648e+00  7.1324652033348537e+00  7.1327684833914038e+00  7.1330629213692136e+00  7.1333487728956584e+00  7.1336262860540671e+00  7.1338957016098439e+00  7.1341572532296524e+00  7.1344111676938180e+00  7.1346576651022033e+00  7.1348969590737559e+00  7.1351292569399423e+00  7.1353547599322305e+00  7.1355736633638838e+00  7.1357861568061534e+00  7.1359924242591370e+00  7.1361926443174264e+00  7.1363869903307044e+00  7.1365756305595092e+00  7.1367587283262388e+00  7.1369364421616242e+00  7.1371089259467571e+00  7.1372763290508452e+00  7.1374387964648411e+00  7.1375964689310356e+00  7.1377494830687684e+00  7.1378979714963924e+00  7.1380420629495696e+00  7.1381818823960721e+00  7.1383175511471313e+00  7.1384491869654916e+00  7.1385769041702716e+00  7.1387008137386889e+00  7.1388210234048026e+00  7.1389376377553324e+00  7.1390507583226590e+00  7.1391604836750711e+00  7.1392669095043866e+00  7.1393701287109872e+00  7.1394702314863574e+00  7.1395673053932391e+00  7.1396614354434060e+00  7.1397527041731887e+00  7.1398411917167985e+00  7.1399269758774988e+00  7.1400101321967062e+00  7.1400907340210633e+00  7.1401688525675731e+00  7.1402445569867838e+00  7.1403179144241520e+00  7.1403889900795585e+00  7.1404578472650906e+00  7.1405245474610659e+00  7.1405891503703813e+00  7.1406517139712067e+00  7.1407122945680621e+00  7.1407709468413039e+00  7.1408277238950371e+00  7.1408826773035212e+00  7.1409358571560340e+00  7.1409873121002700e+00  7.1410370893842448e+00  7.1410852348967930e+00  7.1411317932065765e+00  7.1411768075997211e+00  7.1412203201160409e+00  7.1412623715838714e+00  7.1413030016535579e+00  7.1413422488295524e+00  7.1413801505012326e+00  7.1414167429723454e+00  7.1414520614892032e+00  7.1414861402675598e+00  7.1415190125182715e+00  7.1415507104716820e+00  7.1415812654008173e+00  7.1416107076434132e+00  7.1416390666227532e+00  7.1416663708674069e+00  7.1416926480298590e+00  7.1417179249040830e+00  7.1417422274420863e+00  7.1417655807694702e+00  7.1417880092000381e+00  7.1418095362494487e+00  7.1418301846480601e+00  7.1418499763528871e+00  7.1418689325587774e+00  7.1418870737088227e+00  7.1419044195040646e+00  7.1419209889125046e+00  7.1419368001774979e+00  7.1419518708255083e+00  7.1419662176733407e+00  7.1419798568347987e+00  7.1419928037268825e+00  7.1420050730754863e+00  7.1420166789206947e+00  7.1420276346216491e+00  7.1420379528610436e+00  7.1420476456492743e+00  7.1420567243282411e+00  7.1420651995748594e+00  7.1420730814042690e+00  7.1420803791727794e+00  7.1420871015805583e+00  7.1420932566740820e+00  7.1420988518483544e+00  7.1421038938489101e+00  7.1421083887736234e+00  7.1421123420743067e+00  7.1421157585581296e+00  7.1421186423888550e+00  7.1421209970879032e+00  7.1421228255352327e+00  7.1421241299700675e+00  7.1421249119914600e+00  7.1421251725586812e+00  7.1421249119914592e+00  7.1421241299700684e+00  7.1421228255352336e+00  7.1421209970879040e+00  7.1421186423888550e+00  7.1421157585581296e+00  7.1421123420743058e+00  7.1421083887736234e+00  7.1421038938489101e+00  7.1420988518483544e+00  7.1420932566740820e+00  7.1420871015805556e+00  7.1420803791727741e+00  7.1420730814042654e+00  7.1420651995748576e+00  7.1420567243282402e+00  7.1420476456492716e+00  7.1420379528610400e+00  7.1420276346216438e+00  7.1420166789206920e+00  7.1420050730754827e+00  7.1419928037268798e+00  7.1419798568347979e+00  7.1419662176733363e+00  7.1419518708255048e+00  7.1419368001774917e+00  7.1419209889125028e+00  7.1419044195040611e+00  7.1418870737088227e+00  7.1418689325587792e+00  7.1418499763528871e+00  7.1418301846480601e+00  7.1418095362494460e+00  7.1417880092000363e+00  7.1417655807694702e+00  7.1417422274420828e+00  7.1417179249040768e+00  7.1416926480298519e+00  7.1416663708674024e+00  7.1416390666227523e+00  7.1416107076434114e+00  7.1415812654008155e+00  7.1415507104716811e+00  7.1415190125182715e+00  7.1414861402675633e+00  7.1414520614892050e+00  7.1414167429723499e+00  7.1413801505012362e+00  7.1413422488295559e+00  7.1413030016535552e+00  7.1412623715838706e+00  7.1412203201160391e+00  7.1411768075997175e+00  7.1411317932065748e+00  7.1410852348967930e+00  7.1410370893842456e+00  7.1409873121002718e+00  7.1409358571560375e+00  7.1408826773035230e+00  7.1408277238950406e+00  7.1407709468413074e+00  7.1407122945680657e+00  7.1406517139712076e+00  7.1405891503703813e+00  7.1405245474610641e+00  7.1404578472650906e+00  7.1403889900795585e+00  7.1403179144241511e+00  7.1402445569867865e+00  7.1401688525675766e+00  7.1400907340210651e+00  7.1400101321967044e+00  7.1399269758774970e+00  7.1398411917167968e+00  7.1397527041731861e+00  7.1396614354434034e+00  7.1395673053932383e+00  7.1394702314863583e+00  7.1393701287109881e+00  7.1392669095043875e+00  7.1391604836750719e+00  7.1390507583226546e+00  7.1389376377553306e+00  7.1388210234047982e+00  7.1387008137386836e+00  7.1385769041702680e+00  7.1384491869654907e+00  7.1383175511471286e+00  7.1381818823960712e+00  7.1380420629495687e+00  7.1378979714963906e+00  7.1377494830687684e+00  7.1375964689310365e+00  7.1374387964648420e+00  7.1372763290508461e+00  7.1371089259467579e+00  7.1369364421616259e+00  7.1367587283262424e+00  7.1365756305595109e+00  7.1363869903307027e+00  7.1361926443174246e+00  7.1359924242591353e+00  7.1357861568061507e+00  7.1355736633638811e+00  7.1353547599322305e+00  7.1351292569399387e+00  7.1348969590737559e+00  7.1346576651022016e+00  7.1344111676938189e+00  7.1341572532296551e+00  7.1338957016098474e+00  7.1336262860540689e+00  7.1333487728956593e+00  7.1330629213692118e+00  7.1327684833914029e+00  7.1324652033348546e+00  7.1321528177947640e+00  7.1318310553480977e+00  7.1314996363050689e+00  7.1311582724526472e+00  7.1308066667898551e+00  7.1304445132545418e+00  7.1300714964413903e+00  7.1296872913108018e+00  7.1292915628884250e+00  7.1288839659549588e+00  7.1284641447259265e+00  7.1280317325210927e+00  7.1275863514231341e+00  7.1271276119252649e+00  7.1266551125673976e+00  7.1261684395604474e+00  7.1256671663984408e+00  7.1251508534579600e+00  7.1246190475845115e+00  7.1240712816653886e+00  7.1235070741885869e+00  7.1229259287872688e+00  7.1223273337693191e+00  7.1217107616314754e+00  7.1210756685575509e+00  7.1204214939001504e+00  7.1197476596453857e+00  7.1190535698600241e+00  7.1183386101204187e+00  7.1176021469226747e+00  7.1168435270734127e+00  7.1160620770604570e+00  7.1152571024028184e+00  7.1144278869792474e+00  7.1135736923346728e+00  7.1126937569637878e+00  7.1117872955710144e+00  7.1108534983060956e+00  7.1098915299744849e+00  7.1089005292217209e+00  7.1078796076909372e+00  7.1068278491526229e+00  7.1057443086057370e+00  7.1046280113492566e+00  7.1034779520231579e+00  7.1022930936179218e+00  7.1010723664514934e+00  7.0998146671126641e+00  7.0985188573698448e+00  7.0971837630440788e+00  7.0958081728452296e+00  7.0943908371701223e+00  7.0929304668615254e+00  7.0914257319266998e+00  7.0898752602142858e+00  7.0882776360482884e+00  7.0866313988178220e+00  7.0849350415212804e+00  7.0831870092635842e+00  7.0813856977051328e+00  7.0795294514610019e+00  7.0776165624489744e+00  7.0756452681849158e+00  7.0736137500239762e+00  7.0715201313461753e+00  7.0693624756847031e+00  7.0671387847954890e+00  7.0648469966663638e+00  7.0624849834642518e+00  7.0600505494187811e+00  7.0575414286406382e+00  7.0549552828730606e+00  7.0522896991748079e+00  7.0495421875329596e+00  7.0467101784038695e+00  7.0437910201806835e+00  7.0407819765857136e+00  7.0376802239861282e+00  7.0344828486313062e+00  7.0311868438103096e+00  7.0277891069279637e+00  7.0242864364980395e+00  7.0206755290521201e+00  7.0169529759627833e+00  7.0131152601798155e+00  7.0091587528782444e+00  7.0050797100171032e+00  7.0008742688079169e+00  6.9965384440920477e+00  6.9920681246262140e+00  6.9874590692755563e+00  6.9827069031139697e+00  6.9778071134314255e+00  6.9727550456484320e+00  6.9675458991378614e+00  6.9621747229547681e+00  6.9566364114750581e+00  6.9509256999442366e+00  6.9450371599378222e+00  6.9389651947354274e+00  6.9327040346109383e+00  6.9262477320417117e+00  6.9195901568402984e+00  6.9127249912126398e+00  6.9056457247475205e+00  6.8983456493425672e+00  6.8908178540729290e+00  6.8830552200095827e+00  6.8750504149950888e+00  6.8667958883855489e+00  6.8582838657686249e+00  6.8495063436685424e+00  6.8404550842502863e+00  6.8311216100364600e+00  6.8214971986517519e+00  6.8115728776114759e+00  6.8013394191722867e+00  6.7907873352650592e+00  6.7799068725317335e+00  6.7686880074900708e+00  6.7571204418525097e+00  6.7451935980277016e+00  6.7328966148358589e+00  6.7202183434718954e+00  6.7071473437531974e+00  6.6936718806922029e+00  6.6797799214372091e+00  6.6654591326286239e+00  6.6506968782216802e+00  6.6354802178308478e+00  6.6197959056556188e+00  6.6036303900520448e+00  6.5869698138194961e+00  6.5698000152774538e+00  6.5521065302128534e+00  6.5338745947844830e+00  6.5150891494774914e+00  6.4957348442076155e+00  6.4757960446820952e+00  6.4552568401316419e+00  6.4341010525357731e+00  6.4123122474721885e+00  6.3898737467295161e+00  6.3667686428318477e+00  6.3429798156329422e+00  6.3184899511477708e+00  6.2932815627992236e+00  6.2673370152681525e+00  6.2406385511455795e+00  6.2131683205967825e+00  6.1849084142577260e+00  6.1558408995954013e+00  6.1259478609742253e+00  6.0952114436812979e+00  6.0636139021734152e+00  6.0311376528180451e+00  5.9977653314092478e+00  5.9634798557467814e+00  5.9282644935726330e+00  5.8921029361632753e+00  5.8549793778776440e+00  5.8168786019597993e+00  5.7777860728906063e+00  5.7376880355742994e+00  5.6965716216321391e+00  5.6544249630563286e+00  5.6112373134513378e+00  5.5669991770561564e+00  5.5217024456982786e+00  5.4753405437772997e+00  5.4279085813112200e+00  5.3794035150005381e+00  5.3298243171721378e+00  5.2791721523552795e+00  5.2274505611135833e+00  5.1746656506082633e+00  5.1208262911968676e+00  5.0659443181769515e+00  5.0100347375638652e+00  4.9531159345448410e+00  4.8952098829772632e+00  4.8363423539971402e+00  4.7765431214749841e+00  4.7158461617025562e+00  4.6542898443180230e+00  4.5919171110840331e+00  4.5287756387295852e+00  4.4649179816613422e+00  4.4004016899550962e+00  4.3352893976675588e+00  4.2696488761807103e+00  4.2035530470261078e+00  4.1370799484592089e+00  4.0703126499907736e+00  4.0033391091632673e+00  3.9362519651153884e+00  3.8691482639384258e+00  3.8021291115227811e+00  3.7352992505470408e+00  3.6687665594929082e+00  3.6026414730864351e+00  3.5370363253636485e+00  3.4720646186167623e+00  3.4078402237554242e+00  3.3444765200555957e+00  3.2820854847842056e+00  3.2207767456782790e+00  3.1606566116021666e+00  3.1018270987736969e+00  3.0443849716018749e+00  2.9884208182830254e+00  2.9340181817418656e+00  2.8812527661890