<?xml version="1.0"?>
<VTKFile type="UnstructuredGrid"  version="0.1"  >
<UnstructuredGrid>
<Piece  NumberOfPoints="1001" NumberOfCells="1000">
<Points>
<DataArray  type="Float64"  NumberOfComponents="3"  format="ascii">0 0 0  0.001 0 0  0.002 0 0  0.003 0 0  0.004 0 0  0.005 0 0  0.006 0 0  0.007 0 0  0.008 0 0  0.008999999999999999 0 0  0.01 0 0  0.011 0 0  0.012 0 0  0.013 0 0  0.014 0 0  0.015 0 0  0.016 0 0  0.017 0 0  0.018 0 0  0.019 0 0  0.02 0 0  0.021 0 0  0.022 0 0  0.023 0 0  0.024 0 0  0.025 0 0  0.026 0 0  0.027 0 0  0.028 0 0  0.029 0 0  0.03 0 0  0.031 0 0  0.032 0 0  0.033 0 0  0.034 0 0  0.035 0 0  0.036 0 0  0.037 0 0  0.038 0 0  0.039 0 0  0.04 0 0  0.041 0 0  0.042 0 0  0.043 0 0  0.044 0 0  0.045 0 0  0.046 0 0  0.047 0 0  0.048 0 0  0.049 0 0  0.05 0 0  0.051 0 0  0.052 0 0  0.053 0 0  0.054 0 0  0.055 0 0  0.056 0 0  0.057 0 0  0.058 0 0  0.059 0 0  0.06 0 0  0.061 0 0  0.062 0 0  0.063 0 0  0.064 0 0  0.065 0 0  0.066 0 0  0.067 0 0  0.068 0 0  0.06900000000000001 0 0  0.07000000000000001 0 0  0.07099999999999999 0 0  0.07199999999999999 0 0  0.073 0 0  0.074 0 0  0.075 0 0  0.076 0 0  0.077 0 0  0.078 0 0  0.079 0 0  0.08 0 0  0.081 0 0  0.082 0 0  0.083 0 0  0.08400000000000001 0 0  0.08500000000000001 0 0  0.08599999999999999 0 0  0.08699999999999999 0 0  0.08799999999999999 0 0  0.089 0 0  0.09 0 0  0.091 0 0  0.092 0 0  0.093 0 0  0.094 0 0  0.095 0 0  0.096 0 0  0.097 0 0  0.098 0 0  0.099 0 0  0.1 0 0  0.101 0 0  0.102 0 0  0.103 0 0  0.104 0 0  0.105 0 0  0.106 0 0  0.107 0 0  0.108 0 0  0.109 0 0  0.11 0 0  0.111 0 0  0.112 0 0  0.113 0 0  0.114 0 0  0.115 0 0  0.116 0 0  0.117 0 0  0.118 0 0  0.119 0 0  0.12 0 0  0.121 0 0  0.122 0 0  0.123 0 0  0.124 0 0  0.125 0 0  0.126 0 0  0.127 0 0  0.128 0 0  0.129 0 0  0.13 0 0  0.131 0 0  0.132 0 0  0.133 0 0  0.134 0 0  0.135 0 0  0.136 0 0  0.137 0 0  0.138 0 0  0.139 0 0  0.14 0 0  0.141 0 0  0.142 0 0  0.143 0 0  0.144 0 0  0.145 0 0  0.146 0 0  0.147 0 0  0.148 0 0  0.149 0 0  0.15 0 0  0.151 0 0  0.152 0 0  0.153 0 0  0.154 0 0  0.155 0 0  0.156 0 0  0.157 0 0  0.158 0 0  0.159 0 0  0.16 0 0  0.161 0 0  0.162 0 0  0.163 0 0  0.164 0 0  0.165 0 0  0.166 0 0  0.167 0 0  0.168 0 0  0.169 0 0  0.17 0 0  0.171 0 0  0.172 0 0  0.173 0 0  0.174 0 0  0.175 0 0  0.176 0 0  0.177 0 0  0.178 0 0  0.179 0 0  0.18 0 0  0.181 0 0  0.182 0 0  0.183 0 0  0.184 0 0  0.185 0 0  0.186 0 0  0.187 0 0  0.188 0 0  0.189 0 0  0.19 0 0  0.191 0 0  0.192 0 0  0.193 0 0  0.194 0 0  0.195 0 0  0.196 0 0  0.197 0 0  0.198 0 0  0.199 0 0  0.2 0 0  0.201 0 0  0.202 0 0  0.203 0 0  0.204 0 0  0.205 0 0  0.206 0 0  0.207 0 0  0.208 0 0  0.209 0 0  0.21 0 0  0.211 0 0  0.212 0 0  0.213 0 0  0.214 0 0  0.215 0 0  0.216 0 0  0.217 0 0  0.218 0 0  0.219 0 0  0.22 0 0  0.221 0 0  0.222 0 0  0.223 0 0  0.224 0 0  0.225 0 0  0.226 0 0  0.227 0 0  0.228 0 0  0.229 0 0  0.23 0 0  0.231 0 0  0.232 0 0  0.233 0 0  0.234 0 0  0.235 0 0  0.236 0 0  0.237 0 0  0.238 0 0  0.239 0 0  0.24 0 0  0.241 0 0  0.242 0 0  0.243 0 0  0.244 0 0  0.245 0 0  0.246 0 0  0.247 0 0  0.248 0 0  0.249 0 0  0.25 0 0  0.251 0 0  0.252 0 0  0.253 0 0  0.254 0 0  0.255 0 0  0.256 0 0  0.257 0 0  0.258 0 0  0.259 0 0  0.26 0 0  0.261 0 0  0.262 0 0  0.263 0 0  0.264 0 0  0.265 0 0  0.266 0 0  0.267 0 0  0.268 0 0  0.269 0 0  0.27 0 0  0.271 0 0  0.272 0 0  0.273 0 0  0.274 0 0  0.275 0 0  0.276 0 0  0.277 0 0  0.278 0 0  0.279 0 0  0.28 0 0  0.281 0 0  0.282 0 0  0.283 0 0  0.284 0 0  0.285 0 0  0.286 0 0  0.287 0 0  0.288 0 0  0.289 0 0  0.29 0 0  0.291 0 0  0.292 0 0  0.293 0 0  0.294 0 0  0.295 0 0  0.296 0 0  0.297 0 0  0.298 0 0  0.299 0 0  0.3 0 0  0.301 0 0  0.302 0 0  0.303 0 0  0.304 0 0  0.305 0 0  0.306 0 0  0.307 0 0  0.308 0 0  0.309 0 0  0.31 0 0  0.311 0 0  0.312 0 0  0.313 0 0  0.314 0 0  0.315 0 0  0.316 0 0  0.317 0 0  0.318 0 0  0.319 0 0  0.32 0 0  0.321 0 0  0.322 0 0  0.323 0 0  0.324 0 0  0.325 0 0  0.326 0 0  0.327 0 0  0.328 0 0  0.329 0 0  0.33 0 0  0.331 0 0  0.332 0 0  0.333 0 0  0.334 0 0  0.335 0 0  0.336 0 0  0.337 0 0  0.338 0 0  0.339 0 0  0.34 0 0  0.341 0 0  0.342 0 0  0.343 0 0  0.344 0 0  0.345 0 0  0.346 0 0  0.347 0 0  0.348 0 0  0.349 0 0  0.35 0 0  0.351 0 0  0.352 0 0  0.353 0 0  0.354 0 0  0.355 0 0  0.356 0 0  0.357 0 0  0.358 0 0  0.359 0 0  0.36 0 0  0.361 0 0  0.362 0 0  0.363 0 0  0.364 0 0  0.365 0 0  0.366 0 0  0.367 0 0  0.368 0 0  0.369 0 0  0.37 0 0  0.371 0 0  0.372 0 0  0.373 0 0  0.374 0 0  0.375 0 0  0.376 0 0  0.377 0 0  0.378 0 0  0.379 0 0  0.38 0 0  0.381 0 0  0.382 0 0  0.383 0 0  0.384 0 0  0.385 0 0  0.386 0 0  0.387 0 0  0.388 0 0  0.389 0 0  0.39 0 0  0.391 0 0  0.392 0 0  0.393 0 0  0.394 0 0  0.395 0 0  0.396 0 0  0.397 0 0  0.398 0 0  0.399 0 0  0.4 0 0  0.401 0 0  0.402 0 0  0.403 0 0  0.404 0 0  0.405 0 0  0.406 0 0  0.407 0 0  0.408 0 0  0.409 0 0  0.41 0 0  0.411 0 0  0.412 0 0  0.413 0 0  0.414 0 0  0.415 0 0  0.416 0 0  0.417 0 0  0.418 0 0  0.419 0 0  0.42 0 0  0.421 0 0  0.422 0 0  0.423 0 0  0.424 0 0  0.425 0 0  0.426 0 0  0.427 0 0  0.428 0 0  0.429 0 0  0.43 0 0  0.431 0 0  0.432 0 0  0.433 0 0  0.434 0 0  0.435 0 0  0.436 0 0  0.437 0 0  0.438 0 0  0.439 0 0  0.44 0 0  0.441 0 0  0.442 0 0  0.443 0 0  0.444 0 0  0.445 0 0  0.446 0 0  0.447 0 0  0.448 0 0  0.449 0 0  0.45 0 0  0.451 0 0  0.452 0 0  0.453 0 0  0.454 0 0  0.455 0 0  0.456 0 0  0.457 0 0  0.458 0 0  0.459 0 0  0.46 0 0  0.461 0 0  0.462 0 0  0.463 0 0  0.464 0 0  0.465 0 0  0.466 0 0  0.467 0 0  0.468 0 0  0.469 0 0  0.47 0 0  0.471 0 0  0.472 0 0  0.473 0 0  0.474 0 0  0.475 0 0  0.476 0 0  0.477 0 0  0.478 0 0  0.479 0 0  0.48 0 0  0.481 0 0  0.482 0 0  0.483 0 0  0.484 0 0  0.485 0 0  0.486 0 0  0.487 0 0  0.488 0 0  0.489 0 0  0.49 0 0  0.491 0 0  0.492 0 0  0.493 0 0  0.494 0 0  0.495 0 0  0.496 0 0  0.497 0 0  0.498 0 0  0.499 0 0  0.5 0 0  0.501 0 0  0.502 0 0  0.503 0 0  0.504 0 0  0.505 0 0  0.506 0 0  0.507 0 0  0.508 0 0  0.509 0 0  0.51 0 0  0.511 0 0  0.512 0 0  0.513 0 0  0.514 0 0  0.515 0 0  0.516 0 0  0.517 0 0  0.518 0 0  0.519 0 0  0.52 0 0  0.521 0 0  0.522 0 0  0.523 0 0  0.524 0 0  0.525 0 0  0.526 0 0  0.527 0 0  0.528 0 0  0.529 0 0  0.53 0 0  0.531 0 0  0.532 0 0  0.533 0 0  0.534 0 0  0.535 0 0  0.536 0 0  0.537 0 0  0.538 0 0  0.539 0 0  0.54 0 0  0.541 0 0  0.542 0 0  0.543 0 0  0.544 0 0  0.545 0 0  0.546 0 0  0.547 0 0  0.548 0 0  0.549 0 0  0.55 0 0  0.551 0 0  0.552 0 0  0.553 0 0  0.554 0 0  0.555 0 0  0.556 0 0  0.5570000000000001 0 0  0.5580000000000001 0 0  0.5590000000000001 0 0  0.5600000000000001 0 0  0.5610000000000001 0 0  0.5620000000000001 0 0  0.5629999999999999 0 0  0.5639999999999999 0 0  0.5649999999999999 0 0  0.5659999999999999 0 0  0.5669999999999999 0 0  0.5679999999999999 0 0  0.569 0 0  0.57 0 0  0.571 0 0  0.572 0 0  0.573 0 0  0.574 0 0  0.575 0 0  0.576 0 0  0.577 0 0  0.578 0 0  0.579 0 0  0.58 0 0  0.581 0 0  0.582 0 0  0.583 0 0  0.584 0 0  0.585 0 0  0.586 0 0  0.587 0 0  0.588 0 0  0.589 0 0  0.59 0 0  0.591 0 0  0.592 0 0  0.593 0 0  0.594 0 0  0.595 0 0  0.596 0 0  0.597 0 0  0.598 0 0  0.599 0 0  0.6 0 0  0.601 0 0  0.602 0 0  0.603 0 0  0.604 0 0  0.605 0 0  0.606 0 0  0.607 0 0  0.608 0 0  0.609 0 0  0.61 0 0  0.611 0 0  0.612 0 0  0.613 0 0  0.614 0 0  0.615 0 0  0.616 0 0  0.617 0 0  0.618 0 0  0.619 0 0  0.62 0 0  0.621 0 0  0.622 0 0  0.623 0 0  0.624 0 0  0.625 0 0  0.626 0 0  0.627 0 0  0.628 0 0  0.629 0 0  0.63 0 0  0.631 0 0  0.632 0 0  0.633 0 0  0.634 0 0  0.635 0 0  0.636 0 0  0.637 0 0  0.638 0 0  0.639 0 0  0.64 0 0  0.641 0 0  0.642 0 0  0.643 0 0  0.644 0 0  0.645 0 0  0.646 0 0  0.647 0 0  0.648 0 0  0.649 0 0  0.65 0 0  0.651 0 0  0.652 0 0  0.653 0 0  0.654 0 0  0.655 0 0  0.656 0 0  0.657 0 0  0.658 0 0  0.659 0 0  0.66 0 0  0.661 0 0  0.662 0 0  0.663 0 0  0.664 0 0  0.665 0 0  0.666 0 0  0.667 0 0  0.668 0 0  0.669 0 0  0.67 0 0  0.671 0 0  0.672 0 0  0.673 0 0  0.674 0 0  0.675 0 0  0.676 0 0  0.677 0 0  0.678 0 0  0.679 0 0  0.68 0 0  0.681 0 0  0.6820000000000001 0 0  0.6830000000000001 0 0  0.6840000000000001 0 0  0.6850000000000001 0 0  0.6860000000000001 0 0  0.6870000000000001 0 0  0.6879999999999999 0 0  0.6889999999999999 0 0  0.6899999999999999 0 0  0.6909999999999999 0 0  0.6919999999999999 0 0  0.6929999999999999 0 0  0.694 0 0  0.695 0 0  0.696 0 0  0.697 0 0  0.698 0 0  0.699 0 0  0.7 0 0  0.701 0 0  0.702 0 0  0.703 0 0  0.704 0 0  0.705 0 0  0.706 0 0  0.707 0 0  0.708 0 0  0.709 0 0  0.71 0 0  0.711 0 0  0.712 0 0  0.713 0 0  0.714 0 0  0.715 0 0  0.716 0 0  0.717 0 0  0.718 0 0  0.719 0 0  0.72 0 0  0.721 0 0  0.722 0 0  0.723 0 0  0.724 0 0  0.725 0 0  0.726 0 0  0.727 0 0  0.728 0 0  0.729 0 0  0.73 0 0  0.731 0 0  0.732 0 0  0.733 0 0  0.734 0 0  0.735 0 0  0.736 0 0  0.737 0 0  0.738 0 0  0.739 0 0  0.74 0 0  0.741 0 0  0.742 0 0  0.743 0 0  0.744 0 0  0.745 0 0  0.746 0 0  0.747 0 0  0.748 0 0  0.749 0 0  0.75 0 0  0.751 0 0  0.752 0 0  0.753 0 0  0.754 0 0  0.755 0 0  0.756 0 0  0.757 0 0  0.758 0 0  0.759 0 0  0.76 0 0  0.761 0 0  0.762 0 0  0.763 0 0  0.764 0 0  0.765 0 0  0.766 0 0  0.767 0 0  0.768 0 0  0.769 0 0  0.77 0 0  0.771 0 0  0.772 0 0  0.773 0 0  0.774 0 0  0.775 0 0  0.776 0 0  0.777 0 0  0.778 0 0  0.779 0 0  0.78 0 0  0.781 0 0  0.782 0 0  0.783 0 0  0.784 0 0  0.785 0 0  0.786 0 0  0.787 0 0  0.788 0 0  0.789 0 0  0.79 0 0  0.791 0 0  0.792 0 0  0.793 0 0  0.794 0 0  0.795 0 0  0.796 0 0  0.797 0 0  0.798 0 0  0.799 0 0  0.8 0 0  0.801 0 0  0.802 0 0  0.803 0 0  0.804 0 0  0.805 0 0  0.806 0 0  0.8070000000000001 0 0  0.8080000000000001 0 0  0.8090000000000001 0 0  0.8100000000000001 0 0  0.8110000000000001 0 0  0.8120000000000001 0 0  0.8129999999999999 0 0  0.8139999999999999 0 0  0.8149999999999999 0 0  0.8159999999999999 0 0  0.8169999999999999 0 0  0.8179999999999999 0 0  0.819 0 0  0.82 0 0  0.821 0 0  0.822 0 0  0.823 0 0  0.824 0 0  0.825 0 0  0.826 0 0  0.827 0 0  0.828 0 0  0.829 0 0  0.83 0 0  0.831 0 0  0.832 0 0  0.833 0 0  0.834 0 0  0.835 0 0  0.836 0 0  0.837 0 0  0.838 0 0  0.839 0 0  0.84 0 0  0.841 0 0  0
[...]
<PointData  Scalars="f_20-0"> 
<DataArray  type="Float64"  Name="f_20-0"  format="ascii">2.0000000000000004e+00  2.0000000000000000e+00  2.0000000000000004e+00  2.0000000000000000e+00  2.0000000000000000e+00  2.0000000000000009e+00  1.9999999999999998e+00  2.0000000000000004e+00  2.0000000000000004e+00  2.0000000000000004e+00  2.0000000000000004e+00  2.0000000000000004e+00  2.0000000000000004e+00  2.0000000000000004e+00  2.0000000000000004e+00  2.0000000000000004e+00  2.0000000000000004e+00  2.0000000000000004e+00  2.0000000000000004e+00  2.0000000000000004e+00  2.0000000000000004e+00  2.0000000000000004e+00  2.0000000000000004e+00  2.0000000000000004e+00  2.0000000000000004e+00  2.0000000000000004e+00  2.0000000000000004e+00  2.0000000000000004e+00  2.0000000000000004e+00  2.0000000000000004e+00  2.0000000000000004e+00  2.0000000000000004e+00  2.0000000000000004e+00  2.0000000000000004e+00  2.0000000000000004e+00  2.0000000000000000e+00  2.0000000000000004e+00  2.0000000000000009e+00  2.0000000000000000e+00  2.0000000000000004e+00  2.0000000000000004e+00  2.0000000000000004e+00  2.0000000000000000e+00  2.0000000000000004e+00  2.0000000000000009e+00  2.0000000000000000e+00  2.0000000000000004e+00  2.0000000000000004e+00  2.0000000000000004e+00  2.0000000000000004e+00  2.0000000000000000e+00  2.0000000000000004e+00  2.0000000000000009e+00  2.0000000000000000e+00  2.0000000000000004e+00  2.0000000000000004e+00  2.0000000000000004e+00  2.0000000000000004e+00  2.0000000000000000e+00  2.0000000000000004e+00  2.0000000000000009e+00  2.0000000000000000e+00  2.0000000000000004e+00  2.0000000000000004e+00  2.0000000000000004e+00  2.0000000000000004e+00  2.0000000000000018e+00  2.0000000000000022e+00  2.0000000000000036e+00  2.0000000000000062e+00  2.0000000000000111e+00  2.0000000000000182e+00  2.0000000000000244e+00  2.0000000000000320e+00  2.0000000000000417e+00  2.0000000000000537e+00  2.0000000000000675e+00  2.0000000000000839e+00  2.0000000000001039e+00  2.0000000000001283e+00  2.0000000000001581e+00  2.0000000000001932e+00  2.0000000000002363e+00  2.0000000000002882e+00  2.0000000000003517e+00  2.0000000000004277e+00  2.0000000000005191e+00  2.0000000000006302e+00  2.0000000000007647e+00  2.0000000000009277e+00  2.0000000000011231e+00  2.0000000000013585e+00  2.0000000000016427e+00  2.0000000000019842e+00  2.0000000000023945e+00  2.0000000000028897e+00  2.0000000000034852e+00  2.0000000000042002e+00  2.0000000000050591e+00  2.0000000000060902e+00  2.0000000000073275e+00  2.0000000000088125e+00  2.0000000000105937e+00  2.0000000000127289e+00  2.0000000000152851e+00  2.0000000000183462e+00  2.0000000000220099e+00  2.0000000000263918e+00  2.0000000000316294e+00  2.0000000000378870e+00  2.0000000000453602e+00  2.0000000000542797e+00  2.0000000000649223e+00  2.0000000000776126e+00  2.0000000000927391e+00  2.0000000001107576e+00  2.0000000001322116e+00  2.0000000001577436e+00  2.0000000001881131e+00  2.0000000002242193e+00  2.0000000002671219e+00  2.0000000003180771e+00  2.0000000003785643e+00  2.0000000004503304e+00  2.0000000005354366e+00  2.0000000006363123e+00  2.0000000007558176e+00  2.0000000008973231e+00  2.0000000010647949e+00  2.0000000012628969e+00  2.0000000014971140e+00  2.0000000017738881e+00  2.0000000021007893e+00  2.0000000024867002e+00  2.0000000029420426e+00  2.0000000034790393e+00  2.0000000041120112e+00  2.0000000048577360e+00  2.0000000057358531e+00  2.0000000067693464e+00  2.0000000079850921e+00  2.0000000094145074e+00  2.0000000110942935e+00  2.0000000130673050e+00  2.0000000153835540e+00  2.0000000181013773e+00  2.0000000212887787e+00  2.0000000250249985e+00  2.0000000294023130e+00  2.0000000345281221e+00  2.0000000405273686e+00  2.0000000475453223e+00  2.0000000557507951e+00  2.0000000653398518e+00  2.0000000765400920e+00  2.0000000896155772e+00  2.0000001048725098e+00  2.0000001226657651e+00  2.0000001434064112e+00  2.0000001675703523e+00  2.0000001957082518e+00  2.0000002284569423e+00  2.0000002665525045e+00  2.0000003108452833e+00  2.0000003623170906e+00  2.0000004221009169e+00  2.0000004915035063e+00  2.0000005720311820e+00  2.0000006654193889e+00  2.0000007736664562e+00  2.0000008990721683e+00  2.0000010442817930e+00  2.0000012123363287e+00  2.0000014067297900e+00  2.0000016314744964e+00  2.0000018911754327e+00  2.0000021911148909e+00  2.0000025373487529e+00  2.0000029368159575e+00  2.0000033974628866e+00  2.0000039283845856e+00  2.0000045399850461e+00  2.0000052441589791e+00  2.0000060544978480e+00  2.0000069865232506e+00  2.0000080579511148e+00  2.0000092889906025e+00  2.0000107026820535e+00  2.0000123252788558e+00  2.0000141866786421e+00  2.0000163209099155e+00  2.0000187666808551e+00  2.0000215679978641e+00  2.0000247748622728e+00  2.0000284440545615e+00  2.0000326400165327e+00  2.0000374358430095e+00  2.0000429143959235e+00  2.0000491695550862e+00  2.0000563076214486e+00  2.0000644488904018e+00  2.0000737294145221e+00  2.0000843029772142e+00  2.0000963433009762e+00  2.0001100465164354e+00  2.0001256339210349e+00  2.0001433550591301e+00  2.0001634911584927e+00  2.0001863589616664e+00  2.0002123149943940e+00  2.0002417603174236e+00  2.0002751458124410e+00  2.0003129780576314e+00  2.0003558258535539e+00  2.0004043274655334e+00  2.0004591986547480e+00  2.0005212415765476e+00  2.0005913546313407e+00  2.0006705433606413e+00  2.0007599324885303e+00  2.0008607792169064e+00  2.0009744878914546e+00  2.0011026261641698e+00  2.0012469427876129e+00  2.0014093871856877e+00  2.0015921309556304e+00  2.0017975914659556e+00  2.0020284577252156e+00  2.0022877187065009e+00  2.0025786943223838e+00  2.0029050692543517e+00  2.0032709298493843e+00  2.0036808043038894e+00  2.0041397063613715e+00  2.0046531827544696e+00  2.0052273646238432e+00  2.0058690231452228e+00  2.0065856295909179e+00  2.0073854200424517e+00  2.0082774649556749e+00  2.0092717437575596e+00  2.0103792246236680e+00  2.0116119495454017e+00  2.0129831247449403e+00  2.0145072164315732e+00  2.0162000518135788e+00  2.0180789251829965e+00  2.0201627087739893e+00  2.0224719679567276e+00  2.0250290801651074e+00  2.0278583567659352e+00  2.0309861668568781e+00  2.0344410617287294e+00  2.0382538984426795e+00  2.0424579606547781e+00  2.0470890744678623e+00  2.0521857167077271e+00  2.0577891126089920e+00  2.0639433194629624e+00  2.0706952923336153e+00  2.0780949275011729e+00  2.0861950788615942e+00  2.0950515421154119e+00  2.1047230012458398e+00  2.1152709315439755e+00  2.1267594533225225e+00  2.1392551305069700e+00  2.1528267085452697e+00  2.1675447865747568e+00  2.1834814195678356e+00  2.2007096472792265e+00  2.2193029482617814e+00  2.2393346190151657e+00  2.2608770804735085e+00  2.2840011164926319e+00  2.3087750517059504e+00  2.3352638789927340e+00  2.3635283497261330e+00  2.3936240427979434e+00  2.4256004309888564e+00  2.4594999653921898e+00  2.4953572001323989e+00  2.5331979803892581e+00  2.5730387166179280e+00  2.6148857667631509e+00  2.6587349461796208e+00  2.7045711819321152e+00  2.7523683242679700e+00  2.8020891235028915e+00  2.8536853755624030e+00  2.9070982342337870e+00  2.9622586830797095e+00  3.0190881552100319e+00  3.0774992849391749e+00  3.1373967719635019e+00  3.1986783362087285e+00  3.2612357399887935e+00  3.3249558535876913e+00  3.3897217407683558e+00  3.4554137419229920e+00  3.5219105344670893e+00  3.5890901524833723e+00  3.6568309503737519e+00  3.7250124982134007e+00  3.7935163994730972e+00  3.8622270246571078e+00  3.9310321570930298e+00  3.9998235495331702e+00  4.0684973923359466e+00  4.1369546957661001e+00  4.2051015903793640e+00  4.2728495505524258e+00  4.3401155470054666e+00  4.4068221346738525e+00  4.4728974825535923e+00  4.5382753522097081e+00  4.6028950315351356e+00  4.6667012301157476e+00  4.7296439422267200e+00  4.7916782830855738e+00  4.8527643035421919e+00  4.9128667879168368e+00  4.9719550392200080e+00  5.0300026555165056e+00  5.0869873007399695e+00  5.1428904728311009e+00  5.1976972716674981e+00  5.2513961688788298e+00  5.3039787812995876e+00  5.3554396495029097e+00  5.4057760225830274e+00  5.4549876501089667e+00  5.5030765819569378e+00  5.5500469765412372e+00  5.5959049178013505e+00  5.6406582411640418e+00  5.6843163685812446e+00  5.7268901526455238e+00  5.7683917297024419e+00  5.8088343818116499e+00  5.8482324073537777e+00  5.8866010000370208e+00  5.9239561360236008e+00  5.9603144688713368e+00  5.9956932319674170e+00  6.0301101481198751e+00  6.0635833459653057e+00  6.0961312828492114e+00  6.1277726738363576e+00  6.1585264265125916e+00  6.1884115812461111e+00  6.2174472565842311e+00  6.2456525994716525e+00  6.2730467399868823e+00  6.2996487503051615e+00  6.3254776076084767e+00  6.3505521606756483e+00  6.3748910998982691e+00  6.3985129304809014e+00  6.4214359485965895e+00  6.4436782202810923e+00  6.4652575628614297e+00  6.4861915287260921e+00  6.5064973912556985e+00  6.5261921327439127e+00  6.5452924341489496e+00  6.5638146665261914e+00  6.5817748840020114e+00  6.5991888181582352e+00  6.6160718737052200e+00  6.6324391253300208e+00  6.6483053156137695e+00  6.6636848539199631e+00  6.6785918161621849e+00  6.6930399453664879e+00  6.7070426529497986e+00  6.7206130206414825e+00  6.7337638029807305e+00  6.7465074303275037e+00  6.7588560123294998e+00  6.7708213417922369e+00  6.7824148989033253e+00  6.7936478557660580e+00  6.8045310812010564e+00  6.8150751457780565e+00  6.8252903270431258e+00  6.8351866149095484e+00  6.8447737171833287e+00  6.8540610651968166e+00  6.8630578195263521e+00  6.8717728757719687e+00  6.8802148703792820e+00  6.8883921864855067e+00  6.8963129597733852e+00  6.9039850843183519e+00  6.9114162184157557e+00  6.9186137903763711e+00  6.9255850042796876e+00  6.9323368456755805e+00  6.9388760872261521e+00  6.9452092942803469e+00  6.9513428303750011e+00  6.9572828626566858e+00  6.9630353672194625e+00  6.9686061343544097e+00  6.9740007737071883e+00  6.9792247193407038e+00  6.9842832347001069e+00  6.9891814174780578e+00  6.9939242043783096e+00  6.9985163757761990e+00  7.0029625602747529e+00  7.0072672391554951e+00  7.0114347507232342e+00  7.0154692945443617e+00  7.0193749355784103e+00  7.0231556082029494e+00  7.0268151201320412e+00  7.0303571562289386e+00  7.0337852822139411e+00  7.0371029482688012e+00  7.0403134925394690e+00  7.0434201445395717e+00  7.0464260284574571e+00  7.0493341663703628e+00  7.0521474813698637e+00  7.0548688006033835e+00  7.0575008582372964e+00  7.0600462983477463e+00  7.0625076777457814e+00  7.0648874687440566e+00  7.0671880618725744e+00  7.0694117685511193e+00  7.0715608237260925e+00  7.0736373884791464e+00  7.0756435526145589e+00  7.0775813372315062e+00  7.0794526972863823e+00  7.0812595241489920e+00  7.0830036481549330e+00  7.0846868411547126e+00  7.0863108190581974e+00  7.0878772443710201e+00  7.0893877287173988e+00  7.0908438353418282e+00  7.0922470815801253e+00  7.0935989412884881e+00  7.0949008472178399e+00  7.0961541933193777e+00  7.0973603369666156e+00  7.0985206010787660e+00  7.0996362761304637e+00  7.1007086220334408e+00  7.1017388698768480e+00  7.1027282235145046e+00  7.1036778609892206e+00  7.1045889357867926e+00  7.1054625779146816e+00  7.1062998948033416e+00  7.1071019720308515e+00  7.1078698738745612e+00  7.1086046436960064e+00  7.1093073041681860e+00  7.1099788573563796e+00  7.1106202846658020e+00  7.1112325466709247e+00  7.1118165828424935e+00  7.1123733111889322e+00  7.1129036278291951e+00  7.1134084065138579e+00  7.1138884981108124e+00  7.1143447300709068e+00  7.1147779058877676e+00  7.1151888045645038e+00  7.1155781800983835e+00  7.1159467609929123e+00  7.1162952498047485e+00  7.1166243227313633e+00  7.1169346292433557e+00  7.1172267917639154e+00  7.1175014053962853e+00  7.1177590376988809e+00  7.1180002285064710e+00  7.1182254897949342e+00  7.1184353055863907e+00  7.1186301318908045e+00  7.1188103966799714e+00  7.1189764998893850e+00  7.1191288134434991e+00  7.1192676812998803e+00  7.1193934195080004e+00  7.1195063162784118e+00  7.1196066320585976e+00  7.1196945996118783e+00  7.1197704240962469e+00  7.1198342831402996e+00  7.1198863269138277e+00  7.1199266781909518e+00  7.1199554324040921e+00  7.1199726576873692e+00  7.1199783949083439e+00  7.1199726576873692e+00  7.1199554324040921e+00  7.1199266781909518e+00  7.1198863269138268e+00  7.1198342831402996e+00  7.1197704240962443e+00  7.1196945996118748e+00  7.1196066320585958e+00  7.1195063162784109e+00  7.1193934195079986e+00  7.1192676812998803e+00  7.1191288134434956e+00  7.1189764998893850e+00  7.1188103966799696e+00  7.1186301318908018e+00  7.1184353055863889e+00  7.1182254897949342e+00  7.1180002285064692e+00  7.1177590376988764e+00  7.1175014053962826e+00  7.1172267917639127e+00  7.1169346292433548e+00  7.1166243227313633e+00  7.1162952498047485e+00  7.1159467609929097e+00  7.1155781800983826e+00  7.1151888045645011e+00  7.1147779058877649e+00  7.1143447300709006e+00  7.1138884981108070e+00  7.1134084065138552e+00  7.1129036278291897e+00  7.1123733111889305e+00  7.1118165828424864e+00  7.1112325466709212e+00  7.1106202846657984e+00  7.1099788573563778e+00  7.1093073041681834e+00  7.1086046436960046e+00  7.1078698738745612e+00  7.1071019720308541e+00  7.1062998948033425e+00  7.1054625779146825e+00  7.1045889357867944e+00  7.1036778609892215e+00  7.1027282235145011e+00  7.1017388698768471e+00  7.1007086220334390e+00  7.0996362761304610e+00  7.0985206010787651e+00  7.0973603369666121e+00  7.0961541933193777e+00  7.0949008472178416e+00  7.0935989412884908e+00  7.0922470815801253e+00  7.0908438353418326e+00  7.0893877287173996e+00  7.0878772443710236e+00  7.0863108190582009e+00  7.0846868411547135e+00  7.0830036481549330e+00  7.0812595241489875e+00  7.0794526972863769e+00  7.0775813372315017e+00  7.0756435526145554e+00  7.0736373884791464e+00  7.0715608237260907e+00  7.0694117685511193e+00  7.0671880618725744e+00  7.0648874687440566e+00  7.0625076777457814e+00  7.0600462983477508e+00  7.0575008582373009e+00  7.0548688006033817e+00  7.0521474813698646e+00  7.0493341663703619e+00  7.0464260284574536e+00  7.0434201445395717e+00  7.0403134925394681e+00  7.0371029482688012e+00  7.0337852822139419e+00  7.0303571562289395e+00  7.0268151201320412e+00  7.0231556082029512e+00  7.0193749355784139e+00  7.0154692945443653e+00  7.0114347507232404e+00  7.0072672391554951e+00  7.0029625602747512e+00  6.9985163757761981e+00  6.9939242043783096e+00  6.9891814174780578e+00  6.9842832347001105e+00  6.9792247193407055e+00  6.9740007737071936e+00  6.9686061343544097e+00  6.9630353672194634e+00  6.9572828626566849e+00  6.9513428303749984e+00  6.9452092942803434e+00  6.9388760872261477e+00  6.9323368456755787e+00  6.9255850042796849e+00  6.9186137903763703e+00  6.9114162184157548e+00  6.9039850843183528e+00  6.8963129597733879e+00  6.8883921864855067e+00  6.8802148703792874e+00  6.8717728757719732e+00  6.8630578195263556e+00  6.8540610651968210e+00  6.8447737171833332e+00  6.8351866149095537e+00  6.8252903270431275e+00  6.8150751457780556e+00  6.8045310812010555e+00  6.7936478557660580e+00  6.7824148989033253e+00  6.7708213417922414e+00  6.7588560123295052e+00  6.7465074303275081e+00  6.7337638029807385e+00  6.7206130206414878e+00  6.7070426529498040e+00  6.6930399453664924e+00  6.6785918161621876e+00  6.6636848539199649e+00  6.6483053156137704e+00  6.6324391253300208e+00  6.6160718737052191e+00  6.5991888181582361e+00  6.5817748840020140e+00  6.5638146665261923e+00  6.5452924341489549e+00  6.5261921327439145e+00  6.5064973912557020e+00  6.4861915287260956e+00  6.4652575628614350e+00  6.4436782202810985e+00  6.4214359485965939e+00  6.3985129304809023e+00  6.3748910998982709e+00  6.3505521606756519e+00  6.3254776076084829e+00  6.2996487503051668e+00  6.2730467399868877e+00  6.2456525994716579e+00  6.2174472565842329e+00  6.1884115812461147e+00  6.1585264265125970e+00  6.1277726738363603e+00  6.0961312828492149e+00  6.0635833459653039e+00  6.0301101481198733e+00  5.9956932319674161e+00  5.9603144688713323e+00  5.9239561360235982e+00  5.8866010000370155e+00  5.8482324073537724e+00  5.8088343818116419e+00  5.7683917297024383e+00  5.7268901526455220e+00  5.6843163685812454e+00  5.6406582411640427e+00  5.5959049178013522e+00  5.5500469765412381e+00  5.5030765819569414e+00  5.4549876501089711e+00  5.4057760225830283e+00  5.3554396495029106e+00  5.3039787812995902e+00  5.2513961688788307e+00  5.1976972716674998e+00  5.1428904728311036e+00  5.0869873007399704e+00  5.0300026555165074e+00  4.9719550392200080e+00  4.9128667879168351e+00  4.8527643035421910e+00  4.7916782830855720e+00  4.7296439422267182e+00  4.6667012301157458e+00  4.6028950315351356e+00  4.5382753522097055e+00  4.4728974825535879e+00  4.4068221346738490e+00  4.3401155470054746e+00  4.2728495505524346e+00  4.2051015903793703e+00  4.1369546957661045e+00  4.0684973923359511e+00  3.9998235495331760e+00  3.9310321570930373e+00  3.8622270246571153e+00  3.7935163994731047e+00  3.7250124982134070e+00  3.6568309503737577e+00  3.5890901524833780e+00  3.5219105344670947e+00  3.4554137419229987e+00  3.3897217407683611e+00  3.3249558535876975e+00  3.2612357399887997e+00  3.1986783362087339e+00  3.1373967719635067e+00  3.0774992849391785e+00  3.0190881552100359e+00  2.9622586830797140e+00  2.9070982342337919e+00  2.8536853755624065e+00  2.8020891235028955e+00  2.7523683242679753e+00  2.7045711819321197e+00  2.6587349461796266e+00  2.6148857667631558e+00  2.5730387166179334e+00  2.5331979803892630e+00  2.4953572001323989e+00  2.4594999653921916e+00  2.4256004309888577e+00  2.3936240427979447e+00  2.3635283497261343e+00  2.3352638789927345e+00  2.3087750517059527e+00  2.2840011164926346e+00  2.2608770804735117e+00  2.2393346190151679e+00  2.2193029482617832e+00  2.2007096472792282e+00  2.1834814195678374e+00  2.1675447865747581e+00  2.1528267085452719e+00  2.1392551305069718e+00  2.1267594533225243e+00  2.1152709315439782e+00  2.1047230012458407e+00  2.0950515421154137e+00  2.0861950788615959e+00  2.0780949275011737e+00  2.0706952923336166e+00  2.0639433194629646e+00  2.0577891126089933e+00  2.0521857167077275e+00  2.0470890744678636e+00  2.0424579606547795e+00  2.0382538984426812e+00  2.0344410617287312e+00  2.0309861668568798e+00  2.0278583567659352e+00  2.0250290801651079e+00  2.0224719679567271e+00  2.0201627087739888e+00  2.0180789251829960e+00  2.0162000518135796e+00  2.0145072164315732e+00  2.0129831247449403e+00  2.0116119495454017e+00  2.0103792246236671e+00  2.0092717437575573e+00  2.0082774649556745e+00  2.0073854200424521e+00  2.0065856295909179e+00  2.0058690231452241e+00  2.0052273646238445e+00  2.0046531827544709e+00  2.0041397063613724e+00  2.0036808043038894e+00  2.0032709298493847e+00  2.0029050692543522e+00  2.0025786943223838e+00  2.0022877187065009e+00  2.0020284577252152e+00  2.0017975914659547e+00  2.0015921309556299e+00  2.0014093871856868e+00  2.0012469427876134e+00  2.0011026261641702e+00  2.0009744878914550e+00  2.0008607792169064e+00  2.0007599324885299e+00  2.0006705433606418e+00  2.0005913546313403e+00  2.0005212415765468e+00  2.0004591986547466e+00  2.0004043274655317e+00  2.0003558258535525e+00  2.0003129780576305e+00  2.0002751458124393e+00  2.0002417603174227e+00  2.0002123149943918e+00  2.0001863589616642e+00  2.0001634911584909e+00  2.0001433550591283e+00  2.0001256339210336e+00  2.0001100465164354e+00  2.0000963433009753e+00  2.0000843029772133e+00  2.0000737294145212e+00  2.0000644488904018e+00  2.0000563076214486e+00  2.0000491695550862e+00  2.0000429143959226e+00  2.0000374358430077e+00  2.0000326400165318e+00  2.0000284440545606e+00  2.0000247748622715e+00  2.0000215679978623e+00  2.0000187666808538e+00  2.0000163209099138e+00  2.0000141866786403e+00  2.0000123252788535e+00  2.0000107026820522e+00  2.0000092889906003e+00  2.0000080579511144e+00  2.0000069865232510e+00  2.0000060544978480e+00  2.0000052441589791e+00  2.0000045399850457e+00  2.0000039283845856e+00  2.0000033974628875e+00  2.0000029368159580e+00  2.0000025373487520e+00  2.0000021911148913e+00  2.0000018911754336e+00  2.0000016314744968e+00  2.0000014067297904e+00  2.0000012123363295e+00  2.0000010442817