<?xml version="1.0"?>
<VTKFile type="UnstructuredGrid"  version="0.1"  >
<UnstructuredGrid>
<Piece  NumberOfPoints="1001" NumberOfCells="1000">
<Points>
<DataArray  type="Float64"  NumberOfComponents="3"  format="ascii">0 0 0  0.001 0 0  0.002 0 0  0.003 0 0  0.004 0 0  0.005 0 0  0.006 0 0  0.007 0 0  0.008 0 0  0.008999999999999999 0 0  0.01 0 0  0.011 0 0  0.012 0 0  0.013 0 0  0.014 0 0  0.015 0 0  0.016 0 0  0.017 0 0  0.018 0 0  0.019 0 0  0.02 0 0  0.021 0 0  0.022 0 0  0.023 0 0  0.024 0 0  0.025 0 0  0.026 0 0  0.027 0 0  0.028 0 0  0.029 0 0  0.03 0 0  0.031 0 0  0.032 0 0  0.033 0 0  0.034 0 0  0.035 0 0  0.036 0 0  0.037 0 0  0.038 0 0  0.039 0 0  0.04 0 0  0.041 0 0  0.042 0 0  0.043 0 0  0.044 0 0  0.045 0 0  0.046 0 0  0.047 0 0  0.048 0 0  0.049 0 0  0.05 0 0  0.051 0 0  0.052 0 0  0.053 0 0  0.054 0 0  0.055 0 0  0.056 0 0  0.057 0 0  0.058 0 0  0.059 0 0  0.06 0 0  0.061 0 0  0.062 0 0  0.063 0 0  0.064 0 0  0.065 0 0  0.066 0 0  0.067 0 0  0.068 0 0  0.06900000000000001 0 0  0.07000000000000001 0 0  0.07099999999999999 0 0  0.07199999999999999 0 0  0.073 0 0  0.074 0 0  0.075 0 0  0.076 0 0  0.077 0 0  0.078 0 0  0.079 0 0  0.08 0 0  0.081 0 0  0.082 0 0  0.083 0 0  0.08400000000000001 0 0  0.08500000000000001 0 0  0.08599999999999999 0 0  0.08699999999999999 0 0  0.08799999999999999 0 0  0.089 0 0  0.09 0 0  0.091 0 0  0.092 0 0  0.093 0 0  0.094 0 0  0.095 0 0  0.096 0 0  0.097 0 0  0.098 0 0  0.099 0 0  0.1 0 0  0.101 0 0  0.102 0 0  0.103 0 0  0.104 0 0  0.105 0 0  0.106 0 0  0.107 0 0  0.108 0 0  0.109 0 0  0.11 0 0  0.111 0 0  0.112 0 0  0.113 0 0  0.114 0 0  0.115 0 0  0.116 0 0  0.117 0 0  0.118 0 0  0.119 0 0  0.12 0 0  0.121 0 0  0.122 0 0  0.123 0 0  0.124 0 0  0.125 0 0  0.126 0 0  0.127 0 0  0.128 0 0  0.129 0 0  0.13 0 0  0.131 0 0  0.132 0 0  0.133 0 0  0.134 0 0  0.135 0 0  0.136 0 0  0.137 0 0  0.138 0 0  0.139 0 0  0.14 0 0  0.141 0 0  0.142 0 0  0.143 0 0  0.144 0 0  0.145 0 0  0.146 0 0  0.147 0 0  0.148 0 0  0.149 0 0  0.15 0 0  0.151 0 0  0.152 0 0  0.153 0 0  0.154 0 0  0.155 0 0  0.156 0 0  0.157 0 0  0.158 0 0  0.159 0 0  0.16 0 0  0.161 0 0  0.162 0 0  0.163 0 0  0.164 0 0  0.165 0 0  0.166 0 0  0.167 0 0  0.168 0 0  0.169 0 0  0.17 0 0  0.171 0 0  0.172 0 0  0.173 0 0  0.174 0 0  0.175 0 0  0.176 0 0  0.177 0 0  0.178 0 0  0.179 0 0  0.18 0 0  0.181 0 0  0.182 0 0  0.183 0 0  0.184 0 0  0.185 0 0  0.186 0 0  0.187 0 0  0.188 0 0  0.189 0 0  0.19 0 0  0.191 0 0  0.192 0 0  0.193 0 0  0.194 0 0  0.195 0 0  0.196 0 0  0.197 0 0  0.198 0 0  0.199 0 0  0.2 0 0  0.201 0 0  0.202 0 0  0.203 0 0  0.204 0 0  0.205 0 0  0.206 0 0  0.207 0 0  0.208 0 0  0.209 0 0  0.21 0 0  0.211 0 0  0.212 0 0  0.213 0 0  0.214 0 0  0.215 0 0  0.216 0 0  0.217 0 0  0.218 0 0  0.219 0 0  0.22 0 0  0.221 0 0  0.222 0 0  0.223 0 0  0.224 0 0  0.225 0 0  0.226 0 0  0.227 0 0  0.228 0 0  0.229 0 0  0.23 0 0  0.231 0 0  0.232 0 0  0.233 0 0  0.234 0 0  0.235 0 0  0.236 0 0  0.237 0 0  0.238 0 0  0.239 0 0  0.24 0 0  0.241 0 0  0.242 0 0  0.243 0 0  0.244 0 0  0.245 0 0  0.246 0 0  0.247 0 0  0.248 0 0  0.249 0 0  0.25 0 0  0.251 0 0  0.252 0 0  0.253 0 0  0.254 0 0  0.255 0 0  0.256 0 0  0.257 0 0  0.258 0 0  0.259 0 0  0.26 0 0  0.261 0 0  0.262 0 0  0.263 0 0  0.264 0 0  0.265 0 0  0.266 0 0  0.267 0 0  0.268 0 0  0.269 0 0  0.27 0 0  0.271 0 0  0.272 0 0  0.273 0 0  0.274 0 0  0.275 0 0  0.276 0 0  0.277 0 0  0.278 0 0  0.279 0 0  0.28 0 0  0.281 0 0  0.282 0 0  0.283 0 0  0.284 0 0  0.285 0 0  0.286 0 0  0.287 0 0  0.288 0 0  0.289 0 0  0.29 0 0  0.291 0 0  0.292 0 0  0.293 0 0  0.294 0 0  0.295 0 0  0.296 0 0  0.297 0 0  0.298 0 0  0.299 0 0  0.3 0 0  0.301 0 0  0.302 0 0  0.303 0 0  0.304 0 0  0.305 0 0  0.306 0 0  0.307 0 0  0.308 0 0  0.309 0 0  0.31 0 0  0.311 0 0  0.312 0 0  0.313 0 0  0.314 0 0  0.315 0 0  0.316 0 0  0.317 0 0  0.318 0 0  0.319 0 0  0.32 0 0  0.321 0 0  0.322 0 0  0.323 0 0  0.324 0 0  0.325 0 0  0.326 0 0  0.327 0 0  0.328 0 0  0.329 0 0  0.33 0 0  0.331 0 0  0.332 0 0  0.333 0 0  0.334 0 0  0.335 0 0  0.336 0 0  0.337 0 0  0.338 0 0  0.339 0 0  0.34 0 0  0.341 0 0  0.342 0 0  0.343 0 0  0.344 0 0  0.345 0 0  0.346 0 0  0.347 0 0  0.348 0 0  0.349 0 0  0.35 0 0  0.351 0 0  0.352 0 0  0.353 0 0  0.354 0 0  0.355 0 0  0.356 0 0  0.357 0 0  0.358 0 0  0.359 0 0  0.36 0 0  0.361 0 0  0.362 0 0  0.363 0 0  0.364 0 0  0.365 0 0  0.366 0 0  0.367 0 0  0.368 0 0  0.369 0 0  0.37 0 0  0.371 0 0  0.372 0 0  0.373 0 0  0.374 0 0  0.375 0 0  0.376 0 0  0.377 0 0  0.378 0 0  0.379 0 0  0.38 0 0  0.381 0 0  0.382 0 0  0.383 0 0  0.384 0 0  0.385 0 0  0.386 0 0  0.387 0 0  0.388 0 0  0.389 0 0  0.39 0 0  0.391 0 0  0.392 0 0  0.393 0 0  0.394 0 0  0.395 0 0  0.396 0 0  0.397 0 0  0.398 0 0  0.399 0 0  0.4 0 0  0.401 0 0  0.402 0 0  0.403 0 0  0.404 0 0  0.405 0 0  0.406 0 0  0.407 0 0  0.408 0 0  0.409 0 0  0.41 0 0  0.411 0 0  0.412 0 0  0.413 0 0  0.414 0 0  0.415 0 0  0.416 0 0  0.417 0 0  0.418 0 0  0.419 0 0  0.42 0 0  0.421 0 0  0.422 0 0  0.423 0 0  0.424 0 0  0.425 0 0  0.426 0 0  0.427 0 0  0.428 0 0  0.429 0 0  0.43 0 0  0.431 0 0  0.432 0 0  0.433 0 0  0.434 0 0  0.435 0 0  0.436 0 0  0.437 0 0  0.438 0 0  0.439 0 0  0.44 0 0  0.441 0 0  0.442 0 0  0.443 0 0  0.444 0 0  0.445 0 0  0.446 0 0  0.447 0 0  0.448 0 0  0.449 0 0  0.45 0 0  0.451 0 0  0.452 0 0  0.453 0 0  0.454 0 0  0.455 0 0  0.456 0 0  0.457 0 0  0.458 0 0  0.459 0 0  0.46 0 0  0.461 0 0  0.462 0 0  0.463 0 0  0.464 0 0  0.465 0 0  0.466 0 0  0.467 0 0  0.468 0 0  0.469 0 0  0.47 0 0  0.471 0 0  0.472 0 0  0.473 0 0  0.474 0 0  0.475 0 0  0.476 0 0  0.477 0 0  0.478 0 0  0.479 0 0  0.48 0 0  0.481 0 0  0.482 0 0  0.483 0 0  0.484 0 0  0.485 0 0  0.486 0 0  0.487 0 0  0.488 0 0  0.489 0 0  0.49 0 0  0.491 0 0  0.492 0 0  0.493 0 0  0.494 0 0  0.495 0 0  0.496 0 0  0.497 0 0  0.498 0 0  0.499 0 0  0.5 0 0  0.501 0 0  0.502 0 0  0.503 0 0  0.504 0 0  0.505 0 0  0.506 0 0  0.507 0 0  0.508 0 0  0.509 0 0  0.51 0 0  0.511 0 0  0.512 0 0  0.513 0 0  0.514 0 0  0.515 0 0  0.516 0 0  0.517 0 0  0.518 0 0  0.519 0 0  0.52 0 0  0.521 0 0  0.522 0 0  0.523 0 0  0.524 0 0  0.525 0 0  0.526 0 0  0.527 0 0  0.528 0 0  0.529 0 0  0.53 0 0  0.531 0 0  0.532 0 0  0.533 0 0  0.534 0 0  0.535 0 0  0.536 0 0  0.537 0 0  0.538 0 0  0.539 0 0  0.54 0 0  0.541 0 0  0.542 0 0  0.543 0 0  0.544 0 0  0.545 0 0  0.546 0 0  0.547 0 0  0.548 0 0  0.549 0 0  0.55 0 0  0.551 0 0  0.552 0 0  0.553 0 0  0.554 0 0  0.555 0 0  0.556 0 0  0.5570000000000001 0 0  0.5580000000000001 0 0  0.5590000000000001 0 0  0.5600000000000001 0 0  0.5610000000000001 0 0  0.5620000000000001 0 0  0.5629999999999999 0 0  0.5639999999999999 0 0  0.5649999999999999 0 0  0.5659999999999999 0 0  0.5669999999999999 0 0  0.5679999999999999 0 0  0.569 0 0  0.57 0 0  0.571 0 0  0.572 0 0  0.573 0 0  0.574 0 0  0.575 0 0  0.576 0 0  0.577 0 0  0.578 0 0  0.579 0 0  0.58 0 0  0.581 0 0  0.582 0 0  0.583 0 0  0.584 0 0  0.585 0 0  0.586 0 0  0.587 0 0  0.588 0 0  0.589 0 0  0.59 0 0  0.591 0 0  0.592 0 0  0.593 0 0  0.594 0 0  0.595 0 0  0.596 0 0  0.597 0 0  0.598 0 0  0.599 0 0  0.6 0 0  0.601 0 0  0.602 0 0  0.603 0 0  0.604 0 0  0.605 0 0  0.606 0 0  0.607 0 0  0.608 0 0  0.609 0 0  0.61 0 0  0.611 0 0  0.612 0 0  0.613 0 0  0.614 0 0  0.615 0 0  0.616 0 0  0.617 0 0  0.618 0 0  0.619 0 0  0.62 0 0  0.621 0 0  0.622 0 0  0.623 0 0  0.624 0 0  0.625 0 0  0.626 0 0  0.627 0 0  0.628 0 0  0.629 0 0  0.63 0 0  0.631 0 0  0.632 0 0  0.633 0 0  0.634 0 0  0.635 0 0  0.636 0 0  0.637 0 0  0.638 0 0  0.639 0 0  0.64 0 0  0.641 0 0  0.642 0 0  0.643 0 0  0.644 0 0  0.645 0 0  0.646 0 0  0.647 0 0  0.648 0 0  0.649 0 0  0.65 0 0  0.651 0 0  0.652 0 0  0.653 0 0  0.654 0 0  0.655 0 0  0.656 0 0  0.657 0 0  0.658 0 0  0.659 0 0  0.66 0 0  0.661 0 0  0.662 0 0  0.663 0 0  0.664 0 0  0.665 0 0  0.666 0 0  0.667 0 0  0.668 0 0  0.669 0 0  0.67 0 0  0.671 0 0  0.672 0 0  0.673 0 0  0.674 0 0  0.675 0 0  0.676 0 0  0.677 0 0  0.678 0 0  0.679 0 0  0.68 0 0  0.681 0 0  0.6820000000000001 0 0  0.6830000000000001 0 0  0.6840000000000001 0 0  0.6850000000000001 0 0  0.6860000000000001 0 0  0.6870000000000001 0 0  0.6879999999999999 0 0  0.6889999999999999 0 0  0.6899999999999999 0 0  0.6909999999999999 0 0  0.6919999999999999 0 0  0.6929999999999999 0 0  0.694 0 0  0.695 0 0  0.696 0 0  0.697 0 0  0.698 0 0  0.699 0 0  0.7 0 0  0.701 0 0  0.702 0 0  0.703 0 0  0.704 0 0  0.705 0 0  0.706 0 0  0.707 0 0  0.708 0 0  0.709 0 0  0.71 0 0  0.711 0 0  0.712 0 0  0.713 0 0  0.714 0 0  0.715 0 0  0.716 0 0  0.717 0 0  0.718 0 0  0.719 0 0  0.72 0 0  0.721 0 0  0.722 0 0  0.723 0 0  0.724 0 0  0.725 0 0  0.726 0 0  0.727 0 0  0.728 0 0  0.729 0 0  0.73 0 0  0.731 0 0  0.732 0 0  0.733 0 0  0.734 0 0  0.735 0 0  0.736 0 0  0.737 0 0  0.738 0 0  0.739 0 0  0.74 0 0  0.741 0 0  0.742 0 0  0.743 0 0  0.744 0 0  0.745 0 0  0.746 0 0  0.747 0 0  0.748 0 0  0.749 0 0  0.75 0 0  0.751 0 0  0.752 0 0  0.753 0 0  0.754 0 0  0.755 0 0  0.756 0 0  0.757 0 0  0.758 0 0  0.759 0 0  0.76 0 0  0.761 0 0  0.762 0 0  0.763 0 0  0.764 0 0  0.765 0 0  0.766 0 0  0.767 0 0  0.768 0 0  0.769 0 0  0.77 0 0  0.771 0 0  0.772 0 0  0.773 0 0  0.774 0 0  0.775 0 0  0.776 0 0  0.777 0 0  0.778 0 0  0.779 0 0  0.78 0 0  0.781 0 0  0.782 0 0  0.783 0 0  0.784 0 0  0.785 0 0  0.786 0 0  0.787 0 0  0.788 0 0  0.789 0 0  0.79 0 0  0.791 0 0  0.792 0 0  0.793 0 0  0.794 0 0  0.795 0 0  0.796 0 0  0.797 0 0  0.798 0 0  0.799 0 0  0.8 0 0  0.801 0 0  0.802 0 0  0.803 0 0  0.804 0 0  0.805 0 0  0.806 0 0  0.8070000000000001 0 0  0.8080000000000001 0 0  0.8090000000000001 0 0  0.8100000000000001 0 0  0.8110000000000001 0 0  0.8120000000000001 0 0  0.8129999999999999 0 0  0.8139999999999999 0 0  0.8149999999999999 0 0  0.8159999999999999 0 0  0.8169999999999999 0 0  0.8179999999999999 0 0  0.819 0 0  0.82 0 0  0.821 0 0  0.822 0 0  0.823 0 0  0.824 0 0  0.825 0 0  0.826 0 0  0.827 0 0  0.828 0 0  0.829 0 0  0.83 0 0  0.831 0 0  0.832 0 0  0.833 0 0  0.834 0 0  0.835 0 0  0.836 0 0  0.837 0 0  0.838 0 0  0.839 0 0  0.84 0 0  0.841 0 0  0
[...]
<PointData  Scalars="f_20-0"> 
<DataArray  type="Float64"  Name="f_20-0"  format="ascii">2.0000000000098415e+00  2.0000000000099725e+00  2.0000000000103713e+00  2.0000000000110467e+00  2.0000000000120157e+00  2.0000000000133036e+00  2.0000000000149432e+00  2.0000000000169744e+00  2.0000000000194489e+00  2.0000000000224292e+00  2.0000000000259899e+00  2.0000000000302185e+00  2.0000000000352198e+00  2.0000000000411191e+00  2.0000000000480584e+00  2.0000000000562097e+00  2.0000000000657709e+00  2.0000000000769753e+00  2.0000000000900942e+00  2.0000000001054423e+00  2.0000000001233866e+00  2.0000000001443570e+00  2.0000000001688512e+00  2.0000000001974487e+00  2.0000000002308216e+00  2.0000000002697513e+00  2.0000000003151457e+00  2.0000000003680576e+00  2.0000000004297087e+00  2.0000000005015162e+00  2.0000000005851231e+00  2.0000000006824328e+00  2.0000000007956511e+00  2.0000000009273293e+00  2.0000000010804242e+00  2.0000000012583543e+00  2.0000000014650738e+00  2.0000000017051582e+00  2.0000000019838886e+00  2.0000000023073716e+00  2.0000000026826599e+00  2.0000000031178926e+00  2.0000000036224663e+00  2.0000000042072155e+00  2.0000000048846394e+00  2.0000000056691465e+00  2.0000000065773373e+00  2.0000000076283340e+00  2.0000000088441543e+00  2.0000000102501456e+00  2.0000000118754691e+00  2.0000000137536644e+00  2.0000000159232951e+00  2.0000000184286830e+00  2.0000000213207461e+00  2.0000000246579623e+00  2.0000000285074639e+00  2.0000000329462897e+00  2.0000000380628173e+00  2.0000000439583867e+00  2.0000000507491658e+00  2.0000000585682618e+00  2.0000000675681355e+00  2.0000000779233553e+00  2.0000000898337191e+00  2.0000001035278192e+00  2.0000001192670855e+00  2.0000001373503986e+00  2.0000001581193176e+00  2.0000001819640261e+00  2.0000002093300853e+00  2.0000002407261004e+00  2.0000002767324139e+00  2.0000003180109713e+00  2.0000003653165073e+00  2.0000004195092180e+00  2.0000004815691228e+00  2.0000005526123212e+00  2.0000006339093961e+00  2.0000007269062374e+00  2.0000008332475927e+00  2.0000009548036837e+00  2.0000010937002939e+00  2.0000012523527442e+00  2.0000014335042553e+00  2.0000016402692440e+00  2.0000018761821647e+00  2.0000021452525782e+00  2.0000024520272284e+00  2.0000028016599734e+00  2.0000031999905428e+00  2.0000036536331876e+00  2.0000041700764277e+00  2.0000047577952378e+00  2.0000054263771592e+00  2.0000061866640184e+00  2.0000070509110937e+00  2.0000080329658187e+00  2.0000091484683193e+00  2.0000104150763534e+00  2.0000118527175044e+00  2.0000134838718151e+00  2.0000153338883813e+00  2.0000174313398249e+00  2.0000198084189948e+00  2.0000225013827295e+00  2.0000255510480178e+00  2.0000290033464991e+00  2.0000329099438616e+00  2.0000373289314068e+00  2.0000423255978177e+00  2.0000479732900200e+00  2.0000543543729523e+00  2.0000615612990860e+00  2.0000696977996415e+00  2.0000788802107148e+00  2.0000892389488221e+00  2.0001009201518691e+00  2.0001140875031664e+00  2.0001289242578326e+00  2.0001456354928742e+00  2.0001644506042950e+00  2.0001856260768598e+00  2.0002094485546054e+00  2.0002362382428664e+00  2.0002663526754878e+00  2.0003001908840319e+00  2.0003381980091990e+00  2.0003808703983434e+00  2.0004287612369227e+00  2.0004824867659656e+00  2.0005427331422410e+00  2.0006102640026873e+00  2.0006859287998906e+00  2.0007706719810274e+00  2.0008655430885884e+00  2.0009717078675116e+00  2.0010904604700337e+00  2.0012232368565441e+00  2.0013716294980930e+00  2.0015374034938493e+00  2.0017225142247517e+00  2.0019291266727564e+00  2.0021596365434311e+00  2.0024166933380814e+00  2.0027032255300168e+00  2.0030224680078419e+00  2.0033779919566537e+00  2.0037737373555040e+00  2.0042140482762791e+00  2.0047037111748365e+00  2.0052479963696910e+00  2.0058527029061040e+00  2.0065242070038298e+00  2.0072695142842987e+00  2.0080963159670953e+00  2.0090130492154166e+00  2.0100289617948377e+00  2.0111541811882852e+00  2.0123997882813063e+00  2.0137778956942975e+00  2.0153017307909358e+00  2.0169857233327964e+00  2.0188455976775486e+00  2.0208984693300569e+00  2.0231629455502573e+00  2.0256592295966960e+00  2.0284092280379276e+00  2.0314366603935117e+00  2.0347671701701686e+00  2.0384284361350895e+00  2.0424502824162403e+00  2.0468647857383226e+00  2.0517063777931530e+00  2.0570119404064702e+00  2.0628208908027355e+00  2.0691752538907942e+00  2.0761197181040973e+00  2.0837016709401897e+00  2.0919712099694410e+00  2.1009811247401222e+00  2.1107868447175901e+00  2.1214463481850507e+00  2.1330200269314261e+00  2.1455705015906696e+00  2.1591623827110560e+00  2.1738619730575772e+00  2.1897369073190580e+00  2.2068557263330546e+00  2.2252873841774483e+00  2.2451006880176423e+00  2.2663636724371643e+00  2.2891429120925104e+00  2.3135027788735716e+00  2.3395046522476890e+00  2.3672060940228703e+00  2.3966600012654418e+00  2.4279137534131787e+00  2.4610083715891564e+00  2.4959777095955045e+00  2.5328476969116029e+00  2.5716356541225824e+00  2.6123497004814173e+00  2.6549882717273769e+00  2.6995397638647809e+00  2.7459823154247305e+00  2.7942837369191653e+00  2.8444015919281687e+00  2.8962834297492135e+00  2.9498671650107315e+00  3.0050815953421828e+00  3.0618470443114099e+00  3.1200761135671566e+00  3.1796745255945864e+00  3.2405420367859996e+00  3.3025733996744369e+00  3.3656593531490828e+00  3.4296876201974862e+00  3.4945438940947366e+00  3.5601127958538301e+00  3.6262787880231766e+00  3.6929270324233205e+00  3.7599441820217554e+00  3.8272190997325746e+00  3.8946434993980144e+00  3.9621125064845963e+00  4.0295251380533212e+00  4.0967847033081757e+00  4.1637991274754391e+00  4.2304812029194769e+00  4.2967487722721271e+00  4.3625248489649415e+00  4.4277376809346425e+00  4.4923207634534528e+00  4.5562128070500201e+00  4.6193576663648104e+00  4.6817042355560226e+00  4.7432063155649882e+00  4.8038224581876490e+00  4.8635157915008671e+00  4.9222538307766524e+00  4.9800082785969000e+00  5.0367548174673846e+00  5.0924728978302625e+00  5.1471455239955164e+00  5.2007590401576262e+00  5.2533029183366269e+00  5.3047695497841092e+00  5.3551540411248126e+00  5.4044540162625481e+00  5.4526694248646796e+00  5.4998023580502613e+00  5.5458568717420880e+00  5.5908388179998667e+00  5.6347556845292539e+00  5.6776164424569293e+00  5.7194314023741963e+00  5.7602120785780295e+00  5.7999710613784243e+00  5.8387218972918120e+00  5.8764789769013346e+00  5.9132574301345437e+00  5.9490730286860289e+00  5.9839420952961753e+00  6.0178814195860326e+00  6.0509081801419207e+00  6.0830398725406702e+00  6.1142942430071816e+00  6.1446892273989562e+00  6.1742428952177999e+00  6.2029733983558710e+00  6.2308989242916848e+00  6.2580376534610993e+00  6.2844077205384554e+00  6.3100271793739182e+00  6.3349139713438634e+00  6.3590858968827169e+00  6.3825605899756042e+00  6.4053554954027083e+00  6.4274878485370763e+00  6.4489746575086073e+00  6.4698326875575152e+00  6.4900784474107489e+00  6.5097281775249041e+00  6.5287978400485196e+00  6.5473031103659940e+00  6.5652593700939059e+00  6.5826817014090162e+00  6.5995848825950736e+00  6.6159833847030827e+00  6.6318913692269010e+00  6.6473226867026840e+00  6.6622908761471349e+00  6.6768091652555173e+00  6.6908904712860462e+00  6.7045474025625911e+00  6.7177922605326321e+00  6.7306370423221189e+00  6.7430934437332501e+00  6.7551728626353480e+00  6.7668864027028146e+00  6.7782448774578326e+00  6.7892588145787309e+00  6.7999384604381818e+00  6.8102937848382510e+00  6.8203344859121104e+00  6.8300699951646742e+00  6.8395094826269061e+00  6.8486618621006397e+00  6.8575357964728028e+00  6.8661397030799174e+00  6.8744817591053913e+00  6.8825699069938171e+00  6.8904118598679798e+00  6.8980151069356914e+00  6.9053869188747798e+00  6.9125343531859063e+00  6.9194642595038127e+00  6.9261832848587463e+00  6.9326978788806652e+00  6.9390142989397727e+00  6.9451386152175916e+00  6.9510767157036533e+00  6.9568343111135045e+00  6.9624169397242639e+00  6.9678299721246706e+00  6.9730786158769256e+00  6.9781679200882456e+00  6.9831027798903476e+00  6.9878879408255647e+00  6.9925280031385890e+00  6.9970274259732150e+00  7.0013905314736684e+00  7.0056215087904814e+00  7.0097244179909799e+00  7.0137031938748118e+00  7.0175616496949722e+00  7.0213034807850976e+00  7.0249322680938828e+00  7.0284514816276058e+00  7.0318644838018791e+00  7.0351745327038850e+00  7.0383847852663708e+00  7.0414983003548173e+00  7.0445180417692583e+00  7.0474468811622284e+00  7.0502876008744737e+00  7.0530428966899583e+00  7.0557153805118746e+00  7.0583075829612785e+00  7.0608219559000469e+00  7.0632608748798669e+00  7.0656266415189126e+00  7.0679214858079780e+00  7.0701475683477275e+00  7.0723069825187466e+00  7.0744017565861173e+00  7.0764338557401674e+00  7.0784051840750575e+00  7.0803175865068386e+00  7.0821728506326229e+00  7.0839727085324125e+00  7.0857188385152376e+00  7.0874128668110732e+00  7.0890563692101018e+00  7.0906508726508299e+00  7.0921978567584611e+00  7.0936987553350370e+00  7.0951549578027029e+00  7.0965678106015062e+00  7.0979386185430409e+00  7.0992686461213088e+00  7.1005591187820141e+00  7.1018112241516107e+00  7.1030261132272896e+00  7.1042049015291182e+00  7.1053486702154949e+00  7.1064584671630140e+00  7.1075353080119363e+00  7.1085801771782355e+00  7.1095940288333468e+00  7.1105777878525807e+00  7.1115323507332340e+00  7.1124585864833234e+00  7.1133573374819070e+00  7.1142294203118839e+00  7.1150756265661483e+00  7.1158967236279658e+00  7.1166934554264163e+00  7.1174665431676605e+00  7.1182166860428779e+00  7.1189445619135681e+00  7.1196508279750050e+00  7.1203361213985135e+00  7.1210010599533051e+00  7.1216462426085076e+00  7.1222722501160138e+00  7.1228796455748657e+00  7.1234689749776745e+00  7.1240407677397402e+00  7.1245955372114205e+00  7.1251337811742701e+00  7.1256559823215353e+00  7.1261626087234937e+00  7.1266541142781081e+00  7.1271309391475466e+00  7.1275935101809855e+00  7.1280422413241427e+00  7.1284775340160271e+00  7.1288997775732783e+00  7.1293093495625310e+00  7.1297066161612026e+00  7.1300919325070788e+00  7.1304656430370823e+00  7.1308280818155554e+00  7.1311795728524707e+00  7.1315204304118431e+00  7.1318509593107065e+00  7.1321714552089865e+00  7.1324822048905441e+00  7.1327834865357440e+00  7.1330755699857820e+00  7.1333587169991226e+00  7.1336331815002616e+00  7.1338992098211254e+00  7.1341570409353379e+00  7.1344069066856246e+00  7.1346490320045746e+00  7.1348836351290021e+00  7.1351109278081202e+00  7.1353311155057195e+00  7.1355443975965693e+00  7.1357509675572093e+00  7.1359510131512778e+00  7.1361447166095822e+00  7.1363322548049721e+00  7.1365137994222065e+00  7.1366895171228890e+00  7.1368595697055515e+00  7.1370241142609885e+00  7.1371833033228942e+00  7.1373372850138024e+00  7.1374862031864561e+00  7.1376301975605205e+00  7.1377694038547235e+00  7.1379039539143863e+00  7.1380339758343343e+00  7.1381595940771971e+00  7.1382809295870562e+00  7.1383980998984136e+00  7.1385112192405096e+00  7.1386203986369043e+00  7.1387257460003948e+00  7.1388273662231923e+00  7.1389253612624080e+00  7.1390198302208816e+00  7.1391108694233418e+00  7.1391985724880103e+00  7.1392830303936385e+00  7.1393643315421400e+00  7.1394425618168498e+00  7.1395178046365793e+00  7.1395901410055487e+00  7.1396596495593760e+00  7.1397264066072683e+00  7.1397904861706003e+00  7.1398519600180279e+00  7.1399108976973729e+00  7.1399673665644299e+00  7.1400214318089441e+00  7.1400731564779099e+00  7.1401226014964472e+00  7.1401698256864012e+00  7.1402148857829184e+00  7.1402578364491394e+00  7.1402987302892358e+00  7.1403376178599256e+00  7.1403745476806613e+00  7.1404095662426297e+00  7.1404427180167120e+00  7.1404740454605262e+00  7.1405035890246742e+00  7.1405313871582861e+00  7.1405574763140027e+00  7.1405818909523973e+00  7.1406046635459601e+00  7.1406258245827070e+00  7.1406454025694419e+00  7.1406634240347122e+00  7.1406799135315060e+00  7.1406948936396972e+00  7.1407083849682911e+00  7.1407204061574312e+00  7.1407309738802338e+00  7.1407401028444051e+00  7.1407478057936906e+00  7.1407540935091287e+00  7.1407589748101090e+00  7.1407624565552412e+00  7.1407645436430496e+00  7.1407652390124499e+00  7.1407645436430496e+00  7.1407624565552403e+00  7.1407589748101081e+00  7.1407540935091305e+00  7.1407478057936915e+00  7.1407401028444051e+00  7.1407309738802347e+00  7.1407204061574321e+00  7.1407083849682902e+00  7.1406948936396972e+00  7.1406799135315042e+00  7.1406634240347140e+00  7.1406454025694455e+00  7.1406258245827097e+00  7.1406046635459628e+00  7.1405818909523973e+00  7.1405574763140036e+00  7.1405313871582843e+00  7.1405035890246706e+00  7.1404740454605253e+00  7.1404427180167129e+00  7.1404095662426279e+00  7.1403745476806577e+00  7.1403376178599238e+00  7.1402987302892340e+00  7.1402578364491349e+00  7.1402148857829131e+00  7.1401698256863986e+00  7.1401226014964427e+00  7.1400731564779063e+00  7.1400214318089379e+00  7.1399673665644254e+00  7.1399108976973702e+00  7.1398519600180288e+00  7.1397904861706012e+00  7.1397264066072701e+00  7.1396596495593778e+00  7.1395901410055504e+00  7.1395178046365819e+00  7.1394425618168498e+00  7.1393643315421382e+00  7.1392830303936377e+00  7.1391985724880085e+00  7.1391108694233418e+00  7.1390198302208816e+00  7.1389253612624071e+00  7.1388273662231923e+00  7.1387257460003930e+00  7.1386203986369008e+00  7.1385112192405034e+00  7.1383980998984118e+00  7.1382809295870535e+00  7.1381595940771954e+00  7.1380339758343316e+00  7.1379039539143827e+00  7.1377694038547235e+00  7.1376301975605196e+00  7.1374862031864570e+00  7.1373372850138050e+00  7.1371833033228969e+00  7.1370241142609920e+00  7.1368595697055532e+00  7.1366895171228899e+00  7.1365137994222065e+00  7.1363322548049712e+00  7.1361447166095857e+00  7.1359510131512831e+00  7.1357509675572119e+00  7.1355443975965729e+00  7.1353311155057213e+00  7.1351109278081237e+00  7.1348836351290048e+00  7.1346490320045755e+00  7.1344069066856246e+00  7.1341570409353379e+00  7.1338992098211254e+00  7.1336331815002598e+00  7.1333587169991182e+00  7.1330755699857784e+00  7.1327834865357413e+00  7.1324822048905441e+00  7.1321714552089857e+00  7.1318509593107073e+00  7.1315204304118422e+00  7.1311795728524690e+00  7.1308280818155545e+00  7.1304656430370814e+00  7.1300919325070797e+00  7.1297066161612035e+00  7.1293093495625319e+00  7.1288997775732774e+00  7.1284775340160271e+00  7.1280422413241435e+00  7.1275935101809855e+00  7.1271309391475466e+00  7.1266541142781055e+00  7.1261626087234902e+00  7.1256559823215353e+00  7.1251337811742674e+00  7.1245955372114196e+00  7.1240407677397446e+00  7.1234689749776754e+00  7.1228796455748675e+00  7.1222722501160138e+00  7.1216462426085068e+00  7.1210010599533069e+00  7.1203361213985126e+00  7.1196508279750059e+00  7.1189445619135689e+00  7.1182166860428797e+00  7.1174665431676605e+00  7.1166934554264136e+00  7.1158967236279658e+00  7.1150756265661466e+00  7.1142294203118874e+00  7.1133573374819106e+00  7.1124585864833243e+00  7.1115323507332340e+00  7.1105777878525833e+00  7.1095940288333495e+00  7.1085801771782382e+00  7.1075353080119354e+00  7.1064584671630149e+00  7.1053486702154949e+00  7.1042049015291218e+00  7.1030261132272887e+00  7.1018112241516089e+00  7.1005591187820150e+00  7.0992686461213097e+00  7.0979386185430391e+00  7.0965678106015053e+00  7.0951549578027047e+00  7.0936987553350379e+00  7.0921978567584629e+00  7.0906508726508326e+00  7.0890563692101045e+00  7.0874128668110732e+00  7.0857188385152394e+00  7.0839727085324116e+00  7.0821728506326220e+00  7.0803175865068386e+00  7.0784051840750575e+00  7.0764338557401674e+00  7.0744017565861208e+00  7.0723069825187457e+00  7.0701475683477266e+00  7.0679214858079780e+00  7.0656266415189126e+00  7.0632608748798669e+00  7.0608219559000469e+00  7.0583075829612785e+00  7.0557153805118755e+00  7.0530428966899592e+00  7.0502876008744737e+00  7.0474468811622319e+00  7.0445180417692574e+00  7.0414983003548164e+00  7.0383847852663681e+00  7.0351745327038842e+00  7.0318644838018782e+00  7.0284514816276085e+00  7.0249322680938873e+00  7.0213034807851002e+00  7.0175616496949740e+00  7.0137031938748136e+00  7.0097244179909808e+00  7.0056215087904805e+00  7.0013905314736693e+00  6.9970274259732150e+00  6.9925280031385881e+00  6.9878879408255621e+00  6.9831027798903467e+00  6.9781679200882438e+00  6.9730786158769247e+00  6.9678299721246724e+00  6.9624169397242666e+00  6.9568343111135027e+00  6.9510767157036533e+00  6.9451386152175925e+00  6.9390142989397736e+00  6.9326978788806652e+00  6.9261832848587437e+00  6.9194642595038101e+00  6.9125343531859063e+00  6.9053869188747798e+00  6.8980151069356923e+00  6.8904118598679860e+00  6.8825699069938224e+00  6.8744817591053975e+00  6.8661397030799218e+00  6.8575357964728063e+00  6.8486618621006397e+00  6.8395094826269069e+00  6.8300699951646733e+00  6.8203344859121104e+00  6.8102937848382528e+00  6.7999384604381792e+00  6.7892588145787300e+00  6.7782448774578317e+00  6.7668864027028128e+00  6.7551728626353471e+00  6.7430934437332528e+00  6.7306370423221207e+00  6.7177922605326330e+00  6.7045474025625911e+00  6.6908904712860462e+00  6.6768091652555182e+00  6.6622908761471340e+00  6.6473226867026849e+00  6.6318913692269019e+00  6.6159833847030844e+00  6.5995848825950780e+00  6.5826817014090215e+00  6.5652593700939077e+00  6.5473031103659931e+00  6.5287978400485205e+00  6.5097281775249050e+00  6.4900784474107507e+00  6.4698326875575161e+00  6.4489746575086082e+00  6.4274878485370772e+00  6.4053554954027128e+00  6.3825605899756086e+00  6.3590858968827204e+00  6.3349139713438687e+00  6.3100271793739191e+00  6.2844077205384599e+00  6.2580376534611037e+00  6.2308989242916901e+00  6.2029733983558719e+00  6.1742428952177999e+00  6.1446892273989606e+00  6.1142942430071869e+00  6.0830398725406729e+00  6.0509081801419233e+00  6.0178814195860388e+00  5.9839420952961770e+00  5.9490730286860298e+00  5.9132574301345473e+00  5.8764789769013399e+00  5.8387218972918156e+00  5.7999710613784305e+00  5.7602120785780331e+00  5.7194314023742026e+00  5.6776164424569364e+00  5.6347556845292557e+00  5.5908388179998720e+00  5.5458568717420915e+00  5.4998023580502648e+00  5.4526694248646805e+00  5.4044540162625507e+00  5.3551540411248135e+00  5.3047695497841136e+00  5.2533029183366322e+00  5.2007590401576360e+00  5.1471455239955244e+00  5.0924728978302687e+00  5.0367548174673891e+00  4.9800082785969044e+00  4.9222538307766586e+00  4.8635157915008751e+00  4.8038224581876552e+00  4.7432063155649944e+00  4.6817042355560252e+00  4.6193576663648166e+00  4.5562128070500219e+00  4.4923207634534528e+00  4.4277376809346443e+00  4.3625248489649451e+00  4.2967487722721307e+00  4.2304812029194805e+00  4.1637991274754418e+00  4.0967847033081783e+00  4.0295251380533230e+00  3.9621125064845977e+00  3.8946434993980179e+00  3.8272190997325755e+00  3.7599441820217563e+00  3.6929270324233223e+00  3.6262787880231784e+00  3.5601127958538332e+00  3.4945438940947393e+00  3.4296876201974902e+00  3.3656593531490837e+00  3.3025733996744391e+00  3.2405420367860014e+00  3.1796745255945886e+00  3.1200761135671571e+00  3.0618470443114107e+00  3.0050815953421828e+00  2.9498671650107315e+00  2.8962834297492135e+00  2.8444015919281687e+00  2.7942837369191653e+00  2.7459823154247305e+00  2.6995397638647805e+00  2.6549882717273756e+00  2.6123497004814147e+00  2.5716356541225793e+00  2.5328476969116007e+00  2.4959777095955040e+00  2.4610083715891560e+00  2.4279137534131792e+00  2.3966600012654409e+00  2.3672060940228707e+00  2.3395046522476890e+00  2.3135027788735720e+00  2.2891429120925113e+00  2.2663636724371647e+00  2.2451006880176427e+00  2.2252873841774483e+00  2.2068557263330564e+00  2.1897369073190620e+00  2.1738619730575812e+00  2.1591623827110578e+00  2.1455705015906714e+00  2.1330200269314283e+00  2.1214463481850521e+00  2.1107868447175910e+00  2.1009811247401240e+00  2.0919712099694423e+00  2.0837016709401905e+00  2.0761197181040978e+00  2.0691752538907942e+00  2.0628208908027355e+00  2.0570119404064706e+00  2.0517063777931535e+00  2.0468647857383231e+00  2.0424502824162