<?xml version="1.0"?>
<VTKFile type="UnstructuredGrid"  version="0.1"  >
<UnstructuredGrid>
<Piece  NumberOfPoints="1001" NumberOfCells="1000">
<Points>
<DataArray  type="Float64"  NumberOfComponents="3"  format="ascii">0 0 0  0.001 0 0  0.002 0 0  0.003 0 0  0.004 0 0  0.005 0 0  0.006 0 0  0.007 0 0  0.008 0 0  0.008999999999999999 0 0  0.01 0 0  0.011 0 0  0.012 0 0  0.013 0 0  0.014 0 0  0.015 0 0  0.016 0 0  0.017 0 0  0.018 0 0  0.019 0 0  0.02 0 0  0.021 0 0  0.022 0 0  0.023 0 0  0.024 0 0  0.025 0 0  0.026 0 0  0.027 0 0  0.028 0 0  0.029 0 0  0.03 0 0  0.031 0 0  0.032 0 0  0.033 0 0  0.034 0 0  0.035 0 0  0.036 0 0  0.037 0 0  0.038 0 0  0.039 0 0  0.04 0 0  0.041 0 0  0.042 0 0  0.043 0 0  0.044 0 0  0.045 0 0  0.046 0 0  0.047 0 0  0.048 0 0  0.049 0 0  0.05 0 0  0.051 0 0  0.052 0 0  0.053 0 0  0.054 0 0  0.055 0 0  0.056 0 0  0.057 0 0  0.058 0 0  0.059 0 0  0.06 0 0  0.061 0 0  0.062 0 0  0.063 0 0  0.064 0 0  0.065 0 0  0.066 0 0  0.067 0 0  0.068 0 0  0.06900000000000001 0 0  0.07000000000000001 0 0  0.07099999999999999 0 0  0.07199999999999999 0 0  0.073 0 0  0.074 0 0  0.075 0 0  0.076 0 0  0.077 0 0  0.078 0 0  0.079 0 0  0.08 0 0  0.081 0 0  0.082 0 0  0.083 0 0  0.08400000000000001 0 0  0.08500000000000001 0 0  0.08599999999999999 0 0  0.08699999999999999 0 0  0.08799999999999999 0 0  0.089 0 0  0.09 0 0  0.091 0 0  0.092 0 0  0.093 0 0  0.094 0 0  0.095 0 0  0.096 0 0  0.097 0 0  0.098 0 0  0.099 0 0  0.1 0 0  0.101 0 0  0.102 0 0  0.103 0 0  0.104 0 0  0.105 0 0  0.106 0 0  0.107 0 0  0.108 0 0  0.109 0 0  0.11 0 0  0.111 0 0  0.112 0 0  0.113 0 0  0.114 0 0  0.115 0 0  0.116 0 0  0.117 0 0  0.118 0 0  0.119 0 0  0.12 0 0  0.121 0 0  0.122 0 0  0.123 0 0  0.124 0 0  0.125 0 0  0.126 0 0  0.127 0 0  0.128 0 0  0.129 0 0  0.13 0 0  0.131 0 0  0.132 0 0  0.133 0 0  0.134 0 0  0.135 0 0  0.136 0 0  0.137 0 0  0.138 0 0  0.139 0 0  0.14 0 0  0.141 0 0  0.142 0 0  0.143 0 0  0.144 0 0  0.145 0 0  0.146 0 0  0.147 0 0  0.148 0 0  0.149 0 0  0.15 0 0  0.151 0 0  0.152 0 0  0.153 0 0  0.154 0 0  0.155 0 0  0.156 0 0  0.157 0 0  0.158 0 0  0.159 0 0  0.16 0 0  0.161 0 0  0.162 0 0  0.163 0 0  0.164 0 0  0.165 0 0  0.166 0 0  0.167 0 0  0.168 0 0  0.169 0 0  0.17 0 0  0.171 0 0  0.172 0 0  0.173 0 0  0.174 0 0  0.175 0 0  0.176 0 0  0.177 0 0  0.178 0 0  0.179 0 0  0.18 0 0  0.181 0 0  0.182 0 0  0.183 0 0  0.184 0 0  0.185 0 0  0.186 0 0  0.187 0 0  0.188 0 0  0.189 0 0  0.19 0 0  0.191 0 0  0.192 0 0  0.193 0 0  0.194 0 0  0.195 0 0  0.196 0 0  0.197 0 0  0.198 0 0  0.199 0 0  0.2 0 0  0.201 0 0  0.202 0 0  0.203 0 0  0.204 0 0  0.205 0 0  0.206 0 0  0.207 0 0  0.208 0 0  0.209 0 0  0.21 0 0  0.211 0 0  0.212 0 0  0.213 0 0  0.214 0 0  0.215 0 0  0.216 0 0  0.217 0 0  0.218 0 0  0.219 0 0  0.22 0 0  0.221 0 0  0.222 0 0  0.223 0 0  0.224 0 0  0.225 0 0  0.226 0 0  0.227 0 0  0.228 0 0  0.229 0 0  0.23 0 0  0.231 0 0  0.232 0 0  0.233 0 0  0.234 0 0  0.235 0 0  0.236 0 0  0.237 0 0  0.238 0 0  0.239 0 0  0.24 0 0  0.241 0 0  0.242 0 0  0.243 0 0  0.244 0 0  0.245 0 0  0.246 0 0  0.247 0 0  0.248 0 0  0.249 0 0  0.25 0 0  0.251 0 0  0.252 0 0  0.253 0 0  0.254 0 0  0.255 0 0  0.256 0 0  0.257 0 0  0.258 0 0  0.259 0 0  0.26 0 0  0.261 0 0  0.262 0 0  0.263 0 0  0.264 0 0  0.265 0 0  0.266 0 0  0.267 0 0  0.268 0 0  0.269 0 0  0.27 0 0  0.271 0 0  0.272 0 0  0.273 0 0  0.274 0 0  0.275 0 0  0.276 0 0  0.277 0 0  0.278 0 0  0.279 0 0  0.28 0 0  0.281 0 0  0.282 0 0  0.283 0 0  0.284 0 0  0.285 0 0  0.286 0 0  0.287 0 0  0.288 0 0  0.289 0 0  0.29 0 0  0.291 0 0  0.292 0 0  0.293 0 0  0.294 0 0  0.295 0 0  0.296 0 0  0.297 0 0  0.298 0 0  0.299 0 0  0.3 0 0  0.301 0 0  0.302 0 0  0.303 0 0  0.304 0 0  0.305 0 0  0.306 0 0  0.307 0 0  0.308 0 0  0.309 0 0  0.31 0 0  0.311 0 0  0.312 0 0  0.313 0 0  0.314 0 0  0.315 0 0  0.316 0 0  0.317 0 0  0.318 0 0  0.319 0 0  0.32 0 0  0.321 0 0  0.322 0 0  0.323 0 0  0.324 0 0  0.325 0 0  0.326 0 0  0.327 0 0  0.328 0 0  0.329 0 0  0.33 0 0  0.331 0 0  0.332 0 0  0.333 0 0  0.334 0 0  0.335 0 0  0.336 0 0  0.337 0 0  0.338 0 0  0.339 0 0  0.34 0 0  0.341 0 0  0.342 0 0  0.343 0 0  0.344 0 0  0.345 0 0  0.346 0 0  0.347 0 0  0.348 0 0  0.349 0 0  0.35 0 0  0.351 0 0  0.352 0 0  0.353 0 0  0.354 0 0  0.355 0 0  0.356 0 0  0.357 0 0  0.358 0 0  0.359 0 0  0.36 0 0  0.361 0 0  0.362 0 0  0.363 0 0  0.364 0 0  0.365 0 0  0.366 0 0  0.367 0 0  0.368 0 0  0.369 0 0  0.37 0 0  0.371 0 0  0.372 0 0  0.373 0 0  0.374 0 0  0.375 0 0  0.376 0 0  0.377 0 0  0.378 0 0  0.379 0 0  0.38 0 0  0.381 0 0  0.382 0 0  0.383 0 0  0.384 0 0  0.385 0 0  0.386 0 0  0.387 0 0  0.388 0 0  0.389 0 0  0.39 0 0  0.391 0 0  0.392 0 0  0.393 0 0  0.394 0 0  0.395 0 0  0.396 0 0  0.397 0 0  0.398 0 0  0.399 0 0  0.4 0 0  0.401 0 0  0.402 0 0  0.403 0 0  0.404 0 0  0.405 0 0  0.406 0 0  0.407 0 0  0.408 0 0  0.409 0 0  0.41 0 0  0.411 0 0  0.412 0 0  0.413 0 0  0.414 0 0  0.415 0 0  0.416 0 0  0.417 0 0  0.418 0 0  0.419 0 0  0.42 0 0  0.421 0 0  0.422 0 0  0.423 0 0  0.424 0 0  0.425 0 0  0.426 0 0  0.427 0 0  0.428 0 0  0.429 0 0  0.43 0 0  0.431 0 0  0.432 0 0  0.433 0 0  0.434 0 0  0.435 0 0  0.436 0 0  0.437 0 0  0.438 0 0  0.439 0 0  0.44 0 0  0.441 0 0  0.442 0 0  0.443 0 0  0.444 0 0  0.445 0 0  0.446 0 0  0.447 0 0  0.448 0 0  0.449 0 0  0.45 0 0  0.451 0 0  0.452 0 0  0.453 0 0  0.454 0 0  0.455 0 0  0.456 0 0  0.457 0 0  0.458 0 0  0.459 0 0  0.46 0 0  0.461 0 0  0.462 0 0  0.463 0 0  0.464 0 0  0.465 0 0  0.466 0 0  0.467 0 0  0.468 0 0  0.469 0 0  0.47 0 0  0.471 0 0  0.472 0 0  0.473 0 0  0.474 0 0  0.475 0 0  0.476 0 0  0.477 0 0  0.478 0 0  0.479 0 0  0.48 0 0  0.481 0 0  0.482 0 0  0.483 0 0  0.484 0 0  0.485 0 0  0.486 0 0  0.487 0 0  0.488 0 0  0.489 0 0  0.49 0 0  0.491 0 0  0.492 0 0  0.493 0 0  0.494 0 0  0.495 0 0  0.496 0 0  0.497 0 0  0.498 0 0  0.499 0 0  0.5 0 0  0.501 0 0  0.502 0 0  0.503 0 0  0.504 0 0  0.505 0 0  0.506 0 0  0.507 0 0  0.508 0 0  0.509 0 0  0.51 0 0  0.511 0 0  0.512 0 0  0.513 0 0  0.514 0 0  0.515 0 0  0.516 0 0  0.517 0 0  0.518 0 0  0.519 0 0  0.52 0 0  0.521 0 0  0.522 0 0  0.523 0 0  0.524 0 0  0.525 0 0  0.526 0 0  0.527 0 0  0.528 0 0  0.529 0 0  0.53 0 0  0.531 0 0  0.532 0 0  0.533 0 0  0.534 0 0  0.535 0 0  0.536 0 0  0.537 0 0  0.538 0 0  0.539 0 0  0.54 0 0  0.541 0 0  0.542 0 0  0.543 0 0  0.544 0 0  0.545 0 0  0.546 0 0  0.547 0 0  0.548 0 0  0.549 0 0  0.55 0 0  0.551 0 0  0.552 0 0  0.553 0 0  0.554 0 0  0.555 0 0  0.556 0 0  0.5570000000000001 0 0  0.5580000000000001 0 0  0.5590000000000001 0 0  0.5600000000000001 0 0  0.5610000000000001 0 0  0.5620000000000001 0 0  0.5629999999999999 0 0  0.5639999999999999 0 0  0.5649999999999999 0 0  0.5659999999999999 0 0  0.5669999999999999 0 0  0.5679999999999999 0 0  0.569 0 0  0.57 0 0  0.571 0 0  0.572 0 0  0.573 0 0  0.574 0 0  0.575 0 0  0.576 0 0  0.577 0 0  0.578 0 0  0.579 0 0  0.58 0 0  0.581 0 0  0.582 0 0  0.583 0 0  0.584 0 0  0.585 0 0  0.586 0 0  0.587 0 0  0.588 0 0  0.589 0 0  0.59 0 0  0.591 0 0  0.592 0 0  0.593 0 0  0.594 0 0  0.595 0 0  0.596 0 0  0.597 0 0  0.598 0 0  0.599 0 0  0.6 0 0  0.601 0 0  0.602 0 0  0.603 0 0  0.604 0 0  0.605 0 0  0.606 0 0  0.607 0 0  0.608 0 0  0.609 0 0  0.61 0 0  0.611 0 0  0.612 0 0  0.613 0 0  0.614 0 0  0.615 0 0  0.616 0 0  0.617 0 0  0.618 0 0  0.619 0 0  0.62 0 0  0.621 0 0  0.622 0 0  0.623 0 0  0.624 0 0  0.625 0 0  0.626 0 0  0.627 0 0  0.628 0 0  0.629 0 0  0.63 0 0  0.631 0 0  0.632 0 0  0.633 0 0  0.634 0 0  0.635 0 0  0.636 0 0  0.637 0 0  0.638 0 0  0.639 0 0  0.64 0 0  0.641 0 0  0.642 0 0  0.643 0 0  0.644 0 0  0.645 0 0  0.646 0 0  0.647 0 0  0.648 0 0  0.649 0 0  0.65 0 0  0.651 0 0  0.652 0 0  0.653 0 0  0.654 0 0  0.655 0 0  0.656 0 0  0.657 0 0  0.658 0 0  0.659 0 0  0.66 0 0  0.661 0 0  0.662 0 0  0.663 0 0  0.664 0 0  0.665 0 0  0.666 0 0  0.667 0 0  0.668 0 0  0.669 0 0  0.67 0 0  0.671 0 0  0.672 0 0  0.673 0 0  0.674 0 0  0.675 0 0  0.676 0 0  0.677 0 0  0.678 0 0  0.679 0 0  0.68 0 0  0.681 0 0  0.6820000000000001 0 0  0.6830000000000001 0 0  0.6840000000000001 0 0  0.6850000000000001 0 0  0.6860000000000001 0 0  0.6870000000000001 0 0  0.6879999999999999 0 0  0.6889999999999999 0 0  0.6899999999999999 0 0  0.6909999999999999 0 0  0.6919999999999999 0 0  0.6929999999999999 0 0  0.694 0 0  0.695 0 0  0.696 0 0  0.697 0 0  0.698 0 0  0.699 0 0  0.7 0 0  0.701 0 0  0.702 0 0  0.703 0 0  0.704 0 0  0.705 0 0  0.706 0 0  0.707 0 0  0.708 0 0  0.709 0 0  0.71 0 0  0.711 0 0  0.712 0 0  0.713 0 0  0.714 0 0  0.715 0 0  0.716 0 0  0.717 0 0  0.718 0 0  0.719 0 0  0.72 0 0  0.721 0 0  0.722 0 0  0.723 0 0  0.724 0 0  0.725 0 0  0.726 0 0  0.727 0 0  0.728 0 0  0.729 0 0  0.73 0 0  0.731 0 0  0.732 0 0  0.733 0 0  0.734 0 0  0.735 0 0  0.736 0 0  0.737 0 0  0.738 0 0  0.739 0 0  0.74 0 0  0.741 0 0  0.742 0 0  0.743 0 0  0.744 0 0  0.745 0 0  0.746 0 0  0.747 0 0  0.748 0 0  0.749 0 0  0.75 0 0  0.751 0 0  0.752 0 0  0.753 0 0  0.754 0 0  0.755 0 0  0.756 0 0  0.757 0 0  0.758 0 0  0.759 0 0  0.76 0 0  0.761 0 0  0.762 0 0  0.763 0 0  0.764 0 0  0.765 0 0  0.766 0 0  0.767 0 0  0.768 0 0  0.769 0 0  0.77 0 0  0.771 0 0  0.772 0 0  0.773 0 0  0.774 0 0  0.775 0 0  0.776 0 0  0.777 0 0  0.778 0 0  0.779 0 0  0.78 0 0  0.781 0 0  0.782 0 0  0.783 0 0  0.784 0 0  0.785 0 0  0.786 0 0  0.787 0 0  0.788 0 0  0.789 0 0  0.79 0 0  0.791 0 0  0.792 0 0  0.793 0 0  0.794 0 0  0.795 0 0  0.796 0 0  0.797 0 0  0.798 0 0  0.799 0 0  0.8 0 0  0.801 0 0  0.802 0 0  0.803 0 0  0.804 0 0  0.805 0 0  0.806 0 0  0.8070000000000001 0 0  0.8080000000000001 0 0  0.8090000000000001 0 0  0.8100000000000001 0 0  0.8110000000000001 0 0  0.8120000000000001 0 0  0.8129999999999999 0 0  0.8139999999999999 0 0  0.8149999999999999 0 0  0.8159999999999999 0 0  0.8169999999999999 0 0  0.8179999999999999 0 0  0.819 0 0  0.82 0 0  0.821 0 0  0.822 0 0  0.823 0 0  0.824 0 0  0.825 0 0  0.826 0 0  0.827 0 0  0.828 0 0  0.829 0 0  0.83 0 0  0.831 0 0  0.832 0 0  0.833 0 0  0.834 0 0  0.835 0 0  0.836 0 0  0.837 0 0  0.838 0 0  0.839 0 0  0.84 0 0  0.841 0 0  0
[...]
<PointData  Scalars="f_20-0"> 
<DataArray  type="Float64"  Name="f_20-0"  format="ascii">2.0000000000000004e+00  2.0000000000000000e+00  2.0000000000000004e+00  2.0000000000000000e+00  2.0000000000000000e+00  2.0000000000000004e+00  2.0000000000000000e+00  2.0000000000000004e+00  2.0000000000000004e+00  2.0000000000000004e+00  2.0000000000000004e+00  2.0000000000000004e+00  2.0000000000000004e+00  2.0000000000000009e+00  2.0000000000000009e+00  2.0000000000000018e+00  2.0000000000000027e+00  2.0000000000000036e+00  2.0000000000000049e+00  2.0000000000000071e+00  2.0000000000000093e+00  2.0000000000000115e+00  2.0000000000000142e+00  2.0000000000000178e+00  2.0000000000000218e+00  2.0000000000000266e+00  2.0000000000000329e+00  2.0000000000000395e+00  2.0000000000000471e+00  2.0000000000000568e+00  2.0000000000000688e+00  2.0000000000000830e+00  2.0000000000000990e+00  2.0000000000001186e+00  2.0000000000001426e+00  2.0000000000001710e+00  2.0000000000002052e+00  2.0000000000002456e+00  2.0000000000002935e+00  2.0000000000003508e+00  2.0000000000004197e+00  2.0000000000005018e+00  2.0000000000005991e+00  2.0000000000007159e+00  2.0000000000008540e+00  2.0000000000010192e+00  2.0000000000012150e+00  2.0000000000014486e+00  2.0000000000017262e+00  2.0000000000020561e+00  2.0000000000024478e+00  2.0000000000029123e+00  2.0000000000034635e+00  2.0000000000041176e+00  2.0000000000048948e+00  2.0000000000058158e+00  2.0000000000069074e+00  2.0000000000081997e+00  2.0000000000097304e+00  2.0000000000115423e+00  2.0000000000136855e+00  2.0000000000162208e+00  2.0000000000192180e+00  2.0000000000227605e+00  2.0000000000269456e+00  2.0000000000318860e+00  2.0000000000377178e+00  2.0000000000445999e+00  2.0000000000527161e+00  2.0000000000622844e+00  2.0000000000735603e+00  2.0000000000868430e+00  2.0000000001024834e+00  2.0000000001208931e+00  2.0000000001425526e+00  2.0000000001680247e+00  2.0000000001979710e+00  2.0000000002331610e+00  2.0000000002744973e+00  2.0000000003230336e+00  2.0000000003799996e+00  2.0000000004468337e+00  2.0000000005252132e+00  2.0000000006170948e+00  2.0000000007247611e+00  2.0000000008508723e+00  2.0000000009985288e+00  2.0000000011713399e+00  2.0000000013735093e+00  2.0000000016099277e+00  2.0000000018862849e+00  2.0000000022091955e+00  2.0000000025863476e+00  2.0000000030266731e+00  2.0000000035405439e+00  2.0000000041399986e+00  2.0000000048390034e+00  2.0000000056537566e+00  2.0000000066030377e+00  2.0000000077086035e+00  2.0000000089956576e+00  2.0000000104933759e+00  2.0000000122355233e+00  2.0000000142611585e+00  2.0000000166154410e+00  2.0000000193505665e+00  2.0000000225268324e+00  2.0000000262138675e+00  2.0000000304920413e+00  2.0000000354540810e+00  2.0000000412069219e+00  2.0000000478738356e+00  2.0000000555968613e+00  2.0000000645395914e+00  2.0000000748903615e+00  2.0000000868658954e+00  2.0000001007154782e+00  2.0000001167257215e+00  2.0000001352260077e+00  2.0000001565947052e+00  2.0000001812662651e+00  2.0000002097393121e+00  2.0000002425858741e+00  2.0000002804618928e+00  2.0000003241192070e+00  2.0000003744191868e+00  2.0000004323482528e+00  2.0000004990355307e+00  2.0000005757729173e+00  2.0000006640378909e+00  2.0000007655194105e+00  2.0000008821473259e+00  2.0000010161257444e+00  2.0000011699708762e+00  2.0000013465539372e+00  2.0000015491497591e+00  2.0000017814918367e+00  2.0000020478346454e+00  2.0000023530241382e+00  2.0000027025774680e+00  2.0000031027730945e+00  2.0000035607525750e+00  2.0000040846354987e+00  2.0000046836491938e+00  2.0000053682750401e+00  2.0000061504134141e+00  2.0000070435695587e+00  2.0000080630629213e+00  2.0000092262627924e+00  2.0000105528534258e+00  2.0000120651321689e+00  2.0000137883445261e+00  2.0000157510605554e+00  2.0000179855974558e+00  2.0000205284937649e+00  2.0000234210411936e+00  2.0000267098807769e+00  2.0000304476707536e+00  2.0000346938344054e+00  2.0000395153969635e+00  2.0000449879216813e+00  2.0000511965562247e+00  2.0000582372017477e+00  2.0000662178182780e+00  2.0000752598814882e+00  2.0000855000074660e+00  2.0000970917638079e+00  2.0001102076872219e+00  2.0001250415298424e+00  2.0001418107586995e+00  2.0001607593351722e+00  2.0001821608038988e+00  2.0002063217234558e+00  2.0002335854742292e+00  2.0002643364822292e+00  2.0002990049012492e+00  2.0003380717996726e+00  2.0003820749024595e+00  2.0004316149433841e+00  2.0004873626874771e+00  2.0005500666888616e+00  2.0006205618547264e+00  2.0006997788921841e+00  2.0007887547210559e+00  2.0008886439423428e+00  2.0010007314592242e+00  2.0011264463548608e+00  2.0012673771390705e+00  2.0014252884840351e+00  2.0016021395775856e+00  2.0018001042312026e+00  2.0020215928886205e+00  2.0022692766897290e+00  2.0025461137532137e+00  2.0028553778499187e+00  2.0032006896470689e+00  2.0035860507110508e+00  2.0040158804631143e+00  2.0044950562878814e+00  2.0050289569984305e+00  2.0056235098636552e+00  2.0062852414029084e+00  2.0070213321491135e+00  2.0078396755737487e+00  2.0087489413546047e+00  2.0097586431489787e+00  2.0108792110098794e+00  2.0121220685496781e+00  2.0134997149129621e+00  2.0150258115666335e+00  2.0167152738487677e+00  2.0185843671365382e+00  2.0206508073955880e+00  2.0229338657565146e+00  2.0254544766263471e+00  2.0282353486819624e+00  2.0313010779061380e+00  2.0346782616135473e+00  2.0383956121719766e+00  2.0424840688524544e+00  2.0469769059407326e+00  2.0519098349126899e+00  2.0573210981202039e+00  2.0632515510561675e+00  2.0697447298742615e+00  2.0768469004401453e+00  2.0846070847983835e+00  2.0930770605698492e+00  2.1023113284674166e+00  2.1123670428576444e+00  2.1233039001307668e+00  2.1351839796022878e+00  2.1480715317912229e+00  2.1620327092382503e+00  2.1771352355771652e+00  2.1934480093873070e+00  2.2110406404594229e+00  2.2299829175190475e+00  2.2503442081728733e+00  2.2721927938596735e+00  2.2955951448620651e+00  2.3206151429085349e+00  2.3473132614814065e+00  2.3757457165360552e+00  2.4059636027988183e+00  2.4380120329996990e+00  2.4719292991586355e+00  2.5077460762331363e+00  2.5454846889197102e+00  2.5851584620815098e+00  2.6267711740915405e+00  2.6703166303278878e+00  2.7157783711845256e+00  2.7631295253755837e+00  2.8123328151713385e+00  2.8633407157114523e+00  2.9160957659221922e+00  2.9705310240561627e+00  3.0265706567025199e+00  3.0841306464830240e+00  3.1431196007142490e+00  3.2034396411871624e+00  3.2649873539452412e+00  3.3276547775290610e+00  3.3913304085471676e+00  3.4559002045370910e+00  3.5212485657742292e+00  3.5872592798299232e+00  3.6538164151274732e+00  3.7208051523546395e+00  3.7881125452346973e+00  3.8556282047249875e+00  3.9232449031139049e+00  3.9908590966589168e+00  4.0583713673065809e+00  4.1256867856377797e+00  4.1927151984822491e+00  4.2593714456544429e+00  4.3255755109970542e+00  4.3912526134054577e+00  4.4563332437766361e+00  4.5207531539125076e+00  4.5844533033424044e+00  4.6473797698440027e+00  4.7094836291646933e+00  4.7707208091018884e+00  4.8310519227129731e+00  4.8904420850122712e+00  4.9488607170888947e+00  5.0062813411576306e+00  5.0626813696448085e+00  5.1180418910192014e+00  5.1723474547093442e+00  5.2255858571065881e+00  5.2777479303392889e+00  5.3288273352186062e+00  5.3788203595001622e+00  5.4277257223774962e+00  5.4755443859215056e+00  5.5222793740032738e+00  5.5679355990840733e+00  5.6125196971238784e+00  5.6560398707466426e+00  5.6985057407048210e+00  5.7399282056054188e+00  5.7803193097934136e+00  5.8196921192341406e+00  5.8580606051926098e+00  5.8954395354733640e+00  5.9318443729581478e+00  5.9672911811592542e+00  6.0017965364928170e+00  6.0353774469677672e+00  6.0680512769818016e+00  6.0998356779148537e+00  6.1307485242125699e+00  6.1608078546566825e+00  6.1900318185254859e+00  6.2184386263554110e+00  6.2460465050236760e+00  6.2728736568818428e+00  6.2989382226806168e+00  6.3242582480371166e+00  6.3488516532070500e+00  6.3727362059354897e+00  6.3959294971712115e+00  6.4184489194407313e+00  6.4403116476891533e+00  6.4615346224056527e+00  6.4821345348618467e+00  6.5021278143013941e+00  6.5215306169288905e+00  6.5403588165554494e+00  6.5586279967673216e+00  6.5763534444924181e+00  6.5935501448477503e+00  6.6102327771585374e+00  6.6264157120470362e+00  6.6421130094961054e+00  6.6573384177991022e+00  6.6721053733138476e+00  6.6864270009442786e+00  6.7003161152788762e+00  6.7137852223201477e+00  6.7268465217442319e+00  6.7395119096343343e+00  6.7517929816358642e+00  6.7637010364852124e+00  6.7752470798678042e+00  6.7864418285645387e+00  6.7972957148490272e+00  6.8078188911010207e+00  6.8180212346043048e+00  6.8279123524999425e+00  6.8375015868682167e+00  6.8467980199148997e+00  6.8558104792396088e+00  6.8645475431659735e+00  6.8730175461151610e+00  6.8812285840060508e+00  6.8891885196668223e+00  6.8969049882443061e+00  6.9043854025986899e+00  6.9116369586724673e+00  6.9186666408236750e+00  6.9254812271144850e+00  6.9320872945472614e+00  6.9384912242410275e+00  6.9446992065421860e+00  6.9507172460640367e+00  6.9565511666504154e+00  6.9622066162593264e+00  6.9676890717631510e+00  6.9730038436624371e+00  6.9781560807108773e+00  6.9831507744494425e+00  6.9879927636481352e+00  6.9926867386541511e+00  6.9972372456455769e+00  7.0016486907901241e+00  7.0059253443085900e+00  7.0100713444430722e+00  7.0140907013301463e+00  7.0179873007794464e+00  7.0217649079582438e+00  7.0254271709828302e+00  7.0289776244176316e+00  7.0324196926830851e+00  7.0357566933734930e+00  7.0389918404861129e+00  7.0421282475628386e+00  7.0451689307459500e+00  7.0481168117493898e+00  7.0509747207471767e+00  7.0537453991805377e+00  7.0564315024854061e+00  7.0590356027419725e+00  7.0615601912479651e+00  7.0640076810173875e+00  7.0663804092064133e+00  7.0686806394681758e+00  7.0709105642381536e+00  7.0730723069518682e+00  7.0751679241965739e+00  7.0771994077986609e+00  7.0791686868483623e+00  7.0810776296634570e+00  7.0829280456935697e+00  7.0847216873666143e+00  7.0864602518789974e+00  7.0881453829310672e+00  7.0897786724093228e+00  7.0913616620168938e+00  7.0928958448537065e+00  7.0943826669478200e+00  7.0958235287393423e+00  7.0972197865183553e+00  7.0985727538182797e+00  7.0998837027660882e+00  7.1011538653908222e+00  7.1023844348918592e+00  7.1035765668683908e+00  7.1047313805116294e+00  7.1058499597612510e+00  7.1069333544276372e+00  7.1079825812814805e+00  7.1089986251123722e+00  7.1099824397579585e+00  7.1109349491052871e+00  7.1118570480659669e+00  7.1127496035266917e+00  7.1136134552766475e+00  7.1144494169132928e+00  7.1152582767278343e+00  7.1160407985716523e+00  7.1167977227047663e+00  7.1175297666272268e+00  7.1182376258941931e+00  7.1189219749151231e+00  7.1195834677373799e+00  7.1202227388142285e+00  7.1208404037569490e+00  7.1214370600705541e+00  7.1220132878723250e+00  7.1225696505921450e+00  7.1231066956533828e+00  7.1236249551329198e+00  7.1241249463987186e+00  7.1246071727232776e+00  7.1250721238711998e+00  7.1255202766591550e+00  7.1259520954865225e+00  7.1263680328351109e+00  7.1267685297365340e+00  7.1271540162060019e+00  7.1275249116415251e+00  7.1278816251878734e+00  7.1282245560648967e+00  7.1285540938601724e+00  7.1288706187863253e+00  7.1291745019036838e+00  7.1294661053093087e+00  7.1297457822937567e+00  7.1300138774672392e+00  7.1302707268571268e+00  7.1305166579789443e+00  7.1307519898832421e+00  7.1309770331807965e+00  7.1311920900487467e+00  7.1313974542202576e+00  7.1315934109603099e+00  7.1317802370301457e+00  7.1319582006428224e+00  7.1321275614121271e+00  7.1322885702970185e+00  7.1324414695434726e+00  7.1325864926254736e+00  7.1327238641866391e+00  7.1328537999836970e+00  7.1329765068328825e+00  7.1330921825600315e+00  7.1332010159549668e+00  7.1333031867305792e+00  7.1333988654868010e+00  7.1334882136795486e+00  7.1335713835945374e+00  7.1336485183257761e+00  7.1337197517584423e+00  7.1337852085557882e+00  7.1338450041496344e+00  7.1338992447340255e+00  7.1339480272615550e+00  7.1339914394418882e+00  7.1340295597420251e+00  7.1340624573878388e+00  7.1340901923665054e+00  7.1341128154293889e+00  7.1341303680951116e+00  7.1341428826524460e+00  7.1341503821628365e+00  7.1341528804623406e+00  7.1341503821628365e+00  7.1341428826524460e+00  7.1341303680951116e+00  7.1341128154293889e+00  7.1340901923665054e+00  7.1340624573878388e+00  7.1340295597420251e+00  7.1339914394418882e+00  7.1339480272615541e+00  7.1338992447340246e+00  7.1338450041496344e+00  7.1337852085557865e+00  7.1337197517584414e+00  7.1336485183257761e+00  7.1335713835945374e+00  7.1334882136795486e+00  7.1333988654868010e+00  7.1333031867305792e+00  7.1332010159549668e+00  7.1330921825600315e+00  7.1329765068328825e+00  7.1328537999836970e+00  7.1327238641866391e+00  7.1325864926254745e+00  7.1324414695434735e+00  7.1322885702970193e+00  7.1321275614121289e+00  7.1319582006428224e+00  7.1317802370301449e+00  7.1315934109603099e+00  7.1313974542202585e+00  7.1311920900487484e+00  7.1309770331807982e+00  7.1307519898832439e+00  7.1305166579789470e+00  7.1302707268571277e+00  7.1300138774672410e+00  7.1297457822937584e+00  7.1294661053093087e+00  7.1291745019036838e+00  7.1288706187863244e+00  7.1285540938601715e+00  7.1282245560648958e+00  7.1278816251878734e+00  7.1275249116415251e+00  7.1271540162060028e+00  7.1267685297365349e+00  7.1263680328351109e+00  7.1259520954865225e+00  7.1255202766591559e+00  7.1250721238712016e+00  7.1246071727232794e+00  7.1241249463987213e+00  7.1236249551329216e+00  7.1231066956533828e+00  7.1225696505921459e+00  7.1220132878723259e+00  7.1214370600705541e+00  7.1208404037569490e+00  7.1202227388142285e+00  7.1195834677373799e+00  7.1189219749151231e+00  7.1182376258941931e+00  7.1175297666272268e+00  7.1167977227047663e+00  7.1160407985716523e+00  7.1152582767278343e+00  7.1144494169132928e+00  7.1136134552766475e+00  7.1127496035266926e+00  7.1118570480659677e+00  7.1109349491052889e+00  7.1099824397579603e+00  7.1089986251123749e+00  7.1079825812814823e+00  7.1069333544276390e+00  7.1058499597612528e+00  7.1047313805116303e+00  7.1035765668683917e+00  7.1023844348918601e+00  7.1011538653908222e+00  7.0998837027660873e+00  7.0985727538182806e+00  7.0972197865183571e+00  7.0958235287393441e+00  7.0943826669478209e+00  7.0928958448537074e+00  7.0913616620168938e+00  7.0897786724093219e+00  7.0881453829310654e+00  7.0864602518789956e+00  7.0847216873666117e+00  7.0829280456935679e+00  7.0810776296634570e+00  7.0791686868483623e+00  7.0771994077986609e+00  7.0751679241965739e+00  7.0730723069518682e+00  7.0709105642381536e+00  7.0686806394681758e+00  7.0663804092064133e+00  7.0640076810173875e+00  7.0615601912479651e+00  7.0590356027419725e+00  7.0564315024854061e+00  7.0537453991805377e+00  7.0509747207471776e+00  7.0481168117493906e+00  7.0451689307459517e+00  7.0421282475628395e+00  7.0389918404861120e+00  7.0357566933734921e+00  7.0324196926830851e+00  7.0289776244176325e+00  7.0254271709828311e+00  7.0217649079582447e+00  7.0179873007794500e+00  7.0140907013301499e+00  7.0100713444430722e+00  7.0059253443085900e+00  7.0016486907901250e+00  6.9972372456455769e+00  6.9926867386541520e+00  6.9879927636481360e+00  6.9831507744494425e+00  6.9781560807108765e+00  6.9730038436624362e+00  6.9676890717631492e+00  6.9622066162593246e+00  6.9565511666504154e+00  6.9507172460640376e+00  6.9446992065421860e+00  6.9384912242410284e+00  6.9320872945472614e+00  6.9254812271144868e+00  6.9186666408236759e+00  6.9116369586724691e+00  6.9043854025986908e+00  6.8969049882443061e+00  6.8891885196668214e+00  6.8812285840060499e+00  6.8730175461151610e+00  6.8645475431659735e+00  6.8558104792396088e+00  6.8467980199148997e+00  6.8375015868682167e+00  6.8279123524999425e+00  6.8180212346043048e+00  6.8078188911010216e+00  6.7972957148490289e+00  6.7864418285645405e+00  6.7752470798678033e+00  6.7637010364852115e+00  6.7517929816358615e+00  6.7395119096343334e+00  6.7268465217442310e+00  6.7137852223201451e+00  6.7003161152788744e+00  6.6864270009442777e+00  6.6721053733138485e+00  6.6573384177991031e+00  6.6421130094961063e+00  6.6264157120470362e+00  6.6102327771585392e+00  6.5935501448477503e+00  6.5763534444924181e+00  6.5586279967673224e+00  6.5403588165554503e+00  6.5215306169288914e+00  6.5021278143013950e+00  6.4821345348618467e+00  6.4615346224056527e+00  6.4403116476891533e+00  6.4184489194407313e+00  6.3959294971712115e+00  6.3727362059354897e+00  6.3488516532070500e+00  6.3242582480371174e+00  6.2989382226806185e+00  6.2728736568818455e+00  6.2460465050236769e+00  6.2184386263554119e+00  6.1900318185254868e+00  6.1608078546566833e+00  6.1307485242125717e+00  6.0998356779148555e+00  6.0680512769818042e+00  6.0353774469677735e+00  6.0017965364928232e+00  5.9672911811592604e+00  5.9318443729581531e+00  5.8954395354733684e+00  5.8580606051926152e+00  5.8196921192341460e+00  5.7803193097934198e+00  5.7399282056054259e+00  5.6985057407048281e+00  5.6560398707466497e+00  5.6125196971238864e+00  5.5679355990840804e+00  5.5222793740032809e+00  5.4755443859215118e+00  5.4277257223775015e+00  5.3788203595001658e+00  5.3288273352186106e+00  5.2777479303392942e+00  5.2255858571065952e+00  5.1723474547093531e+00  5.1180418910192120e+00  5.0626813696448183e+00  5.0062813411576395e+00  4.9488607170889045e+00  4.8904420850122801e+00  4.8310519227129820e+00  4.7707208091018973e+00  4.7094836291647022e+00  4.6473797698440134e+00  4.5844533033424124e+00  4.5207531539125139e+00  4.4563332437766414e+00  4.3912526134054621e+00  4.3255755109970595e+00  4.2593714456544474e+00  4.1927151984822544e+00  4.1256867856377850e+00  4.0583713673065871e+00  3.9908590966589221e+00  3.9232449031139098e+00  3.8556282047249928e+00  3.7881125452347022e+00  3.7208051523546448e+00  3.6538164151274786e+00  3.5872592798299281e+00  3.5212485657742336e+00  3.4559002045370955e+00  3.3913304085471725e+00  3.3276547775290655e+00  3.2649873539452461e+00  3.2034396411871668e+00  3.1431196007142530e+00  3.0841306464830280e+00  3.0265706567025235e+00  2.9705310240561658e+00  2.9160957659221962e+00  2.8633407157114563e+00  2.8123328151713407e+00  2.7631295253755863e+00  2.7157783711845287e+00  2.6703166303278905e+00  2.6267711740915436e+00  2.5851584620815129e+00  2.5454846889197134e+00  2.5077460762331385e+00  2.4719292991586377e+00  2.4380120329997008e+00  2.4059636027988196e+00  2.3757457165360560e+00  2.3473132614814078e+00  2.3206151429085362e+00  2.2955951448620660e+00  2.2721927938596744e+00  2.2503442081728746e+00  2.2299829175190489e+00  2.2110406404594234e+00  2.1934480093873074e+00  2.1771352355771656e+00  2.1620327092382507e+00  2.1480715317912229e+00  2.1351839796022882e+00  2.1233039001307672e+00  2.1123670428576444e+00  2.1023113284674162e+00  2.0930770605698492e+00  2.0846070847983835e+00  2.0768469004401453e+00  2.0697447298742619e+00  2.0632515510561671e+00  2.0573210981202030e+00  2.0519098349126885e+00  2.0469769059407321e+00  2.0424840688524553e+00  2.0383956121719775e+00  2.0346782616135481e+00  2.0313010779061385e+00  2.0282353486819624e+00  2.0254544766263463e+00  2.0229338657565141e+00  2.0206508073955876e+00  2.0185843671365378e+00  2.0167152738487673e+00  2.0150258115666331e+00  2.0134997149129621e+00  2.0121220685496786e+00  2.0108792110098790e+00  2.0097586431489773e+00  2.0087489413546034e+00  2.0078396755737473e+00  2.0070213321491122e+00  2.0062852414029066e+00  2.0056235098636530e+00  2.0050289569984292e+00  2.0044950562878805e+00  2.0040158804631134e+00  2.0035860507110499e+00  2.0032006896470684e+00  2.0028553778499183e+00  2.0025461137532132e+00  2.0022692766897290e+00  2.0020215928886209e+00  2.0018001042312026e+00  2.0016021395775851e+00  2.0014252884840347e+00  2.0012673771390710e+00  2.0011264463548621e+00  2.0010007314592260e+00  2.0008886439423450e+00  2.0007887547210581e+00  2.0006997788921859e+00  2.0006205618547281e+00  2.0005500666888634e+00  2.0004873626874780e+00  2.0004316149433841e+00  2.0003820749024595e+00  2.0003380717996726e+00  2.0002990049012492e+00  2.0002643364822292e+00  2.0002335854742292e+00  2.0002063217234558e+00  2.0001821608038