<?xml version="1.0"?>
<VTKFile type="UnstructuredGrid"  version="0.1"  >
<UnstructuredGrid>
<Piece  NumberOfPoints="1001" NumberOfCells="1000">
<Points>
<DataArray  type="Float64"  NumberOfComponents="3"  format="ascii">0 0 0  0.001 0 0  0.002 0 0  0.003 0 0  0.004 0 0  0.005 0 0  0.006 0 0  0.007 0 0  0.008 0 0  0.008999999999999999 0 0  0.01 0 0  0.011 0 0  0.012 0 0  0.013 0 0  0.014 0 0  0.015 0 0  0.016 0 0  0.017 0 0  0.018 0 0  0.019 0 0  0.02 0 0  0.021 0 0  0.022 0 0  0.023 0 0  0.024 0 0  0.025 0 0  0.026 0 0  0.027 0 0  0.028 0 0  0.029 0 0  0.03 0 0  0.031 0 0  0.032 0 0  0.033 0 0  0.034 0 0  0.035 0 0  0.036 0 0  0.037 0 0  0.038 0 0  0.039 0 0  0.04 0 0  0.041 0 0  0.042 0 0  0.043 0 0  0.044 0 0  0.045 0 0  0.046 0 0  0.047 0 0  0.048 0 0  0.049 0 0  0.05 0 0  0.051 0 0  0.052 0 0  0.053 0 0  0.054 0 0  0.055 0 0  0.056 0 0  0.057 0 0  0.058 0 0  0.059 0 0  0.06 0 0  0.061 0 0  0.062 0 0  0.063 0 0  0.064 0 0  0.065 0 0  0.066 0 0  0.067 0 0  0.068 0 0  0.06900000000000001 0 0  0.07000000000000001 0 0  0.07099999999999999 0 0  0.07199999999999999 0 0  0.073 0 0  0.074 0 0  0.075 0 0  0.076 0 0  0.077 0 0  0.078 0 0  0.079 0 0  0.08 0 0  0.081 0 0  0.082 0 0  0.083 0 0  0.08400000000000001 0 0  0.08500000000000001 0 0  0.08599999999999999 0 0  0.08699999999999999 0 0  0.08799999999999999 0 0  0.089 0 0  0.09 0 0  0.091 0 0  0.092 0 0  0.093 0 0  0.094 0 0  0.095 0 0  0.096 0 0  0.097 0 0  0.098 0 0  0.099 0 0  0.1 0 0  0.101 0 0  0.102 0 0  0.103 0 0  0.104 0 0  0.105 0 0  0.106 0 0  0.107 0 0  0.108 0 0  0.109 0 0  0.11 0 0  0.111 0 0  0.112 0 0  0.113 0 0  0.114 0 0  0.115 0 0  0.116 0 0  0.117 0 0  0.118 0 0  0.119 0 0  0.12 0 0  0.121 0 0  0.122 0 0  0.123 0 0  0.124 0 0  0.125 0 0  0.126 0 0  0.127 0 0  0.128 0 0  0.129 0 0  0.13 0 0  0.131 0 0  0.132 0 0  0.133 0 0  0.134 0 0  0.135 0 0  0.136 0 0  0.137 0 0  0.138 0 0  0.139 0 0  0.14 0 0  0.141 0 0  0.142 0 0  0.143 0 0  0.144 0 0  0.145 0 0  0.146 0 0  0.147 0 0  0.148 0 0  0.149 0 0  0.15 0 0  0.151 0 0  0.152 0 0  0.153 0 0  0.154 0 0  0.155 0 0  0.156 0 0  0.157 0 0  0.158 0 0  0.159 0 0  0.16 0 0  0.161 0 0  0.162 0 0  0.163 0 0  0.164 0 0  0.165 0 0  0.166 0 0  0.167 0 0  0.168 0 0  0.169 0 0  0.17 0 0  0.171 0 0  0.172 0 0  0.173 0 0  0.174 0 0  0.175 0 0  0.176 0 0  0.177 0 0  0.178 0 0  0.179 0 0  0.18 0 0  0.181 0 0  0.182 0 0  0.183 0 0  0.184 0 0  0.185 0 0  0.186 0 0  0.187 0 0  0.188 0 0  0.189 0 0  0.19 0 0  0.191 0 0  0.192 0 0  0.193 0 0  0.194 0 0  0.195 0 0  0.196 0 0  0.197 0 0  0.198 0 0  0.199 0 0  0.2 0 0  0.201 0 0  0.202 0 0  0.203 0 0  0.204 0 0  0.205 0 0  0.206 0 0  0.207 0 0  0.208 0 0  0.209 0 0  0.21 0 0  0.211 0 0  0.212 0 0  0.213 0 0  0.214 0 0  0.215 0 0  0.216 0 0  0.217 0 0  0.218 0 0  0.219 0 0  0.22 0 0  0.221 0 0  0.222 0 0  0.223 0 0  0.224 0 0  0.225 0 0  0.226 0 0  0.227 0 0  0.228 0 0  0.229 0 0  0.23 0 0  0.231 0 0  0.232 0 0  0.233 0 0  0.234 0 0  0.235 0 0  0.236 0 0  0.237 0 0  0.238 0 0  0.239 0 0  0.24 0 0  0.241 0 0  0.242 0 0  0.243 0 0  0.244 0 0  0.245 0 0  0.246 0 0  0.247 0 0  0.248 0 0  0.249 0 0  0.25 0 0  0.251 0 0  0.252 0 0  0.253 0 0  0.254 0 0  0.255 0 0  0.256 0 0  0.257 0 0  0.258 0 0  0.259 0 0  0.26 0 0  0.261 0 0  0.262 0 0  0.263 0 0  0.264 0 0  0.265 0 0  0.266 0 0  0.267 0 0  0.268 0 0  0.269 0 0  0.27 0 0  0.271 0 0  0.272 0 0  0.273 0 0  0.274 0 0  0.275 0 0  0.276 0 0  0.277 0 0  0.278 0 0  0.279 0 0  0.28 0 0  0.281 0 0  0.282 0 0  0.283 0 0  0.284 0 0  0.285 0 0  0.286 0 0  0.287 0 0  0.288 0 0  0.289 0 0  0.29 0 0  0.291 0 0  0.292 0 0  0.293 0 0  0.294 0 0  0.295 0 0  0.296 0 0  0.297 0 0  0.298 0 0  0.299 0 0  0.3 0 0  0.301 0 0  0.302 0 0  0.303 0 0  0.304 0 0  0.305 0 0  0.306 0 0  0.307 0 0  0.308 0 0  0.309 0 0  0.31 0 0  0.311 0 0  0.312 0 0  0.313 0 0  0.314 0 0  0.315 0 0  0.316 0 0  0.317 0 0  0.318 0 0  0.319 0 0  0.32 0 0  0.321 0 0  0.322 0 0  0.323 0 0  0.324 0 0  0.325 0 0  0.326 0 0  0.327 0 0  0.328 0 0  0.329 0 0  0.33 0 0  0.331 0 0  0.332 0 0  0.333 0 0  0.334 0 0  0.335 0 0  0.336 0 0  0.337 0 0  0.338 0 0  0.339 0 0  0.34 0 0  0.341 0 0  0.342 0 0  0.343 0 0  0.344 0 0  0.345 0 0  0.346 0 0  0.347 0 0  0.348 0 0  0.349 0 0  0.35 0 0  0.351 0 0  0.352 0 0  0.353 0 0  0.354 0 0  0.355 0 0  0.356 0 0  0.357 0 0  0.358 0 0  0.359 0 0  0.36 0 0  0.361 0 0  0.362 0 0  0.363 0 0  0.364 0 0  0.365 0 0  0.366 0 0  0.367 0 0  0.368 0 0  0.369 0 0  0.37 0 0  0.371 0 0  0.372 0 0  0.373 0 0  0.374 0 0  0.375 0 0  0.376 0 0  0.377 0 0  0.378 0 0  0.379 0 0  0.38 0 0  0.381 0 0  0.382 0 0  0.383 0 0  0.384 0 0  0.385 0 0  0.386 0 0  0.387 0 0  0.388 0 0  0.389 0 0  0.39 0 0  0.391 0 0  0.392 0 0  0.393 0 0  0.394 0 0  0.395 0 0  0.396 0 0  0.397 0 0  0.398 0 0  0.399 0 0  0.4 0 0  0.401 0 0  0.402 0 0  0.403 0 0  0.404 0 0  0.405 0 0  0.406 0 0  0.407 0 0  0.408 0 0  0.409 0 0  0.41 0 0  0.411 0 0  0.412 0 0  0.413 0 0  0.414 0 0  0.415 0 0  0.416 0 0  0.417 0 0  0.418 0 0  0.419 0 0  0.42 0 0  0.421 0 0  0.422 0 0  0.423 0 0  0.424 0 0  0.425 0 0  0.426 0 0  0.427 0 0  0.428 0 0  0.429 0 0  0.43 0 0  0.431 0 0  0.432 0 0  0.433 0 0  0.434 0 0  0.435 0 0  0.436 0 0  0.437 0 0  0.438 0 0  0.439 0 0  0.44 0 0  0.441 0 0  0.442 0 0  0.443 0 0  0.444 0 0  0.445 0 0  0.446 0 0  0.447 0 0  0.448 0 0  0.449 0 0  0.45 0 0  0.451 0 0  0.452 0 0  0.453 0 0  0.454 0 0  0.455 0 0  0.456 0 0  0.457 0 0  0.458 0 0  0.459 0 0  0.46 0 0  0.461 0 0  0.462 0 0  0.463 0 0  0.464 0 0  0.465 0 0  0.466 0 0  0.467 0 0  0.468 0 0  0.469 0 0  0.47 0 0  0.471 0 0  0.472 0 0  0.473 0 0  0.474 0 0  0.475 0 0  0.476 0 0  0.477 0 0  0.478 0 0  0.479 0 0  0.48 0 0  0.481 0 0  0.482 0 0  0.483 0 0  0.484 0 0  0.485 0 0  0.486 0 0  0.487 0 0  0.488 0 0  0.489 0 0  0.49 0 0  0.491 0 0  0.492 0 0  0.493 0 0  0.494 0 0  0.495 0 0  0.496 0 0  0.497 0 0  0.498 0 0  0.499 0 0  0.5 0 0  0.501 0 0  0.502 0 0  0.503 0 0  0.504 0 0  0.505 0 0  0.506 0 0  0.507 0 0  0.508 0 0  0.509 0 0  0.51 0 0  0.511 0 0  0.512 0 0  0.513 0 0  0.514 0 0  0.515 0 0  0.516 0 0  0.517 0 0  0.518 0 0  0.519 0 0  0.52 0 0  0.521 0 0  0.522 0 0  0.523 0 0  0.524 0 0  0.525 0 0  0.526 0 0  0.527 0 0  0.528 0 0  0.529 0 0  0.53 0 0  0.531 0 0  0.532 0 0  0.533 0 0  0.534 0 0  0.535 0 0  0.536 0 0  0.537 0 0  0.538 0 0  0.539 0 0  0.54 0 0  0.541 0 0  0.542 0 0  0.543 0 0  0.544 0 0  0.545 0 0  0.546 0 0  0.547 0 0  0.548 0 0  0.549 0 0  0.55 0 0  0.551 0 0  0.552 0 0  0.553 0 0  0.554 0 0  0.555 0 0  0.556 0 0  0.5570000000000001 0 0  0.5580000000000001 0 0  0.5590000000000001 0 0  0.5600000000000001 0 0  0.5610000000000001 0 0  0.5620000000000001 0 0  0.5629999999999999 0 0  0.5639999999999999 0 0  0.5649999999999999 0 0  0.5659999999999999 0 0  0.5669999999999999 0 0  0.5679999999999999 0 0  0.569 0 0  0.57 0 0  0.571 0 0  0.572 0 0  0.573 0 0  0.574 0 0  0.575 0 0  0.576 0 0  0.577 0 0  0.578 0 0  0.579 0 0  0.58 0 0  0.581 0 0  0.582 0 0  0.583 0 0  0.584 0 0  0.585 0 0  0.586 0 0  0.587 0 0  0.588 0 0  0.589 0 0  0.59 0 0  0.591 0 0  0.592 0 0  0.593 0 0  0.594 0 0  0.595 0 0  0.596 0 0  0.597 0 0  0.598 0 0  0.599 0 0  0.6 0 0  0.601 0 0  0.602 0 0  0.603 0 0  0.604 0 0  0.605 0 0  0.606 0 0  0.607 0 0  0.608 0 0  0.609 0 0  0.61 0 0  0.611 0 0  0.612 0 0  0.613 0 0  0.614 0 0  0.615 0 0  0.616 0 0  0.617 0 0  0.618 0 0  0.619 0 0  0.62 0 0  0.621 0 0  0.622 0 0  0.623 0 0  0.624 0 0  0.625 0 0  0.626 0 0  0.627 0 0  0.628 0 0  0.629 0 0  0.63 0 0  0.631 0 0  0.632 0 0  0.633 0 0  0.634 0 0  0.635 0 0  0.636 0 0  0.637 0 0  0.638 0 0  0.639 0 0  0.64 0 0  0.641 0 0  0.642 0 0  0.643 0 0  0.644 0 0  0.645 0 0  0.646 0 0  0.647 0 0  0.648 0 0  0.649 0 0  0.65 0 0  0.651 0 0  0.652 0 0  0.653 0 0  0.654 0 0  0.655 0 0  0.656 0 0  0.657 0 0  0.658 0 0  0.659 0 0  0.66 0 0  0.661 0 0  0.662 0 0  0.663 0 0  0.664 0 0  0.665 0 0  0.666 0 0  0.667 0 0  0.668 0 0  0.669 0 0  0.67 0 0  0.671 0 0  0.672 0 0  0.673 0 0  0.674 0 0  0.675 0 0  0.676 0 0  0.677 0 0  0.678 0 0  0.679 0 0  0.68 0 0  0.681 0 0  0.6820000000000001 0 0  0.6830000000000001 0 0  0.6840000000000001 0 0  0.6850000000000001 0 0  0.6860000000000001 0 0  0.6870000000000001 0 0  0.6879999999999999 0 0  0.6889999999999999 0 0  0.6899999999999999 0 0  0.6909999999999999 0 0  0.6919999999999999 0 0  0.6929999999999999 0 0  0.694 0 0  0.695 0 0  0.696 0 0  0.697 0 0  0.698 0 0  0.699 0 0  0.7 0 0  0.701 0 0  0.702 0 0  0.703 0 0  0.704 0 0  0.705 0 0  0.706 0 0  0.707 0 0  0.708 0 0  0.709 0 0  0.71 0 0  0.711 0 0  0.712 0 0  0.713 0 0  0.714 0 0  0.715 0 0  0.716 0 0  0.717 0 0  0.718 0 0  0.719 0 0  0.72 0 0  0.721 0 0  0.722 0 0  0.723 0 0  0.724 0 0  0.725 0 0  0.726 0 0  0.727 0 0  0.728 0 0  0.729 0 0  0.73 0 0  0.731 0 0  0.732 0 0  0.733 0 0  0.734 0 0  0.735 0 0  0.736 0 0  0.737 0 0  0.738 0 0  0.739 0 0  0.74 0 0  0.741 0 0  0.742 0 0  0.743 0 0  0.744 0 0  0.745 0 0  0.746 0 0  0.747 0 0  0.748 0 0  0.749 0 0  0.75 0 0  0.751 0 0  0.752 0 0  0.753 0 0  0.754 0 0  0.755 0 0  0.756 0 0  0.757 0 0  0.758 0 0  0.759 0 0  0.76 0 0  0.761 0 0  0.762 0 0  0.763 0 0  0.764 0 0  0.765 0 0  0.766 0 0  0.767 0 0  0.768 0 0  0.769 0 0  0.77 0 0  0.771 0 0  0.772 0 0  0.773 0 0  0.774 0 0  0.775 0 0  0.776 0 0  0.777 0 0  0.778 0 0  0.779 0 0  0.78 0 0  0.781 0 0  0.782 0 0  0.783 0 0  0.784 0 0  0.785 0 0  0.786 0 0  0.787 0 0  0.788 0 0  0.789 0 0  0.79 0 0  0.791 0 0  0.792 0 0  0.793 0 0  0.794 0 0  0.795 0 0  0.796 0 0  0.797 0 0  0.798 0 0  0.799 0 0  0.8 0 0  0.801 0 0  0.802 0 0  0.803 0 0  0.804 0 0  0.805 0 0  0.806 0 0  0.8070000000000001 0 0  0.8080000000000001 0 0  0.8090000000000001 0 0  0.8100000000000001 0 0  0.8110000000000001 0 0  0.8120000000000001 0 0  0.8129999999999999 0 0  0.8139999999999999 0 0  0.8149999999999999 0 0  0.8159999999999999 0 0  0.8169999999999999 0 0  0.8179999999999999 0 0  0.819 0 0  0.82 0 0  0.821 0 0  0.822 0 0  0.823 0 0  0.824 0 0  0.825 0 0  0.826 0 0  0.827 0 0  0.828 0 0  0.829 0 0  0.83 0 0  0.831 0 0  0.832 0 0  0.833 0 0  0.834 0 0  0.835 0 0  0.836 0 0  0.837 0 0  0.838 0 0  0.839 0 0  0.84 0 0  0.841 0 0  0
[...]
<PointData  Scalars="f_20-0"> 
<DataArray  type="Float64"  Name="f_20-0"  format="ascii">2.7732743703883322e+00  2.7751682500435959e+00  2.7808420731385262e+00  2.7902724559023220e+00  2.8034206381894320e+00  2.8202328025803642e+00  2.8406405205376379e+00  2.8645613242266701e+00  2.8918994012027226e+00  2.9225464072173226e+00  2.9563823899939328e+00  2.9932768141178947e+00  3.0330896743862166e+00  3.0756726822992659e+00  3.1208705080757566e+00  3.1685220588305048e+00  3.2184617725162954e+00  3.2705209069774468e+00  3.3245288040060794e+00  3.3803141095814238e+00  3.4377059334037070e+00  3.4965349332653091e+00  3.5566343125701980e+00  3.6178407222510804e+00  3.6799950612848691e+00  3.7429431728342411e+00  3.8065364356369633e+00  3.8706322525464363e+00  3.9350944400482590e+00  3.9997935241178264e+00  4.0646069489457615e+00  4.1294192058627077e+00  4.1941218902764925e+00  4.2586136946355735e+00  4.3228003453987744e+00  4.3865944917692747e+00  4.4499155535847743e+00  4.5126895352860625e+00  4.5748488123479607e+00  4.6363318959798621e+00  4.6970831813119105e+00  4.7570526836963447e+00  4.8161957671864677e+00  4.8744728687179100e+00  4.9318492210157201e+00  4.9882945767902331e+00  5.0437829363664077e+00  5.0982922805159534e+00  5.1518043099274937e+00  5.2043041924557736e+00  5.2557803190336454e+00  5.3062240689074684e+00  5.3556295846647268e+00  5.4039935573588469e+00  5.4513150218974555e+00  5.4975951627440303e+00  5.5428371298859700e+00  5.5870458649425991e+00  5.6302279372219077e+00  5.6723913894830522e+00  5.7135455931210890e+00  5.7537011124593045e+00  5.7928695778116088e+00  5.8310635669613555e+00  5.8682964946927836e+00  5.9045825100058238e+00  5.9399364006437665e+00  5.9743735045652375e+00  6.0079096279966997e+00  6.0405609697086406e+00  6.0723440511672813e+00  6.1032756522237701e+00  6.1333727520138366e+00  6.1626524747528970e+00  6.1911320401238932e+00  6.2188287179679884e+00  6.2457597870011119e+00  6.2719424972923621e+00  6.2973940362531176e+00  6.3221314978984759e+00  6.3461718551550597e+00  6.3695319350015112e+00  6.3922283962396582e+00  6.4142777097060222e+00  6.4356961407441640e+00  6.4564997337690837e+00  6.4767042987650827e+00  6.4963253995681942e+00  6.5153783437935680e+00  6.5338781742770786e+00  6.5518396619088231e+00  6.5692772997441375e+00  6.5862052982853490e+00  6.6026375818345890e+00  6.6185877858248281e+00  6.6340692550425757e+00  6.6490950426617941e+00  6.6636779100141457e+00  6.6778303270260935e+00  6.6915644732583228e+00  6.7048922394876644e+00  6.7178252297761318e+00  6.7303747639757550e+00  6.7425518806218143e+00  6.7543673401706341e+00  6.7658316285415614e+00  6.7769549609258046e+00  6.7877472858278649e+00  6.7982182893079512e+00  6.8083773993964058e+00  6.8182337906534922e+00  6.8277963888502020e+00  6.8370738757477083e+00  6.8460746939551074e+00  6.8548070518468283e+00  6.8632789285227522e+00  6.8714980787956668e+00  6.8794720381920325e+00  6.8872081279534472e+00  6.8947134600273765e+00  6.9019949420368096e+00  6.9090592822196859e+00  6.9159129943297222e+00  6.9225624024913266e+00  6.9290136460020237e+00  6.9352726840765735e+00  6.9413453005277423e+00  6.9472371083792153e+00  6.9529535544068475e+00  6.9584999236048786e+00  6.9638813435743625e+00  6.9691027888314041e+00  6.9741690850332487e+00  6.9790849131207242e+00  6.9838548133757508e+00  6.9884831893930413e+00  6.9929743119654049e+00  6.9973323228822766e+00  7.0015612386413677e+00  7.0056649540735085e+00  7.0096472458810251e+00  7.0135117760900547e+00  7.0172620954174558e+00  7.0209016465530505e+00  7.0244337673580741e+00  7.0278616939808245e+00  7.0311885638905753e+00  7.0344174188309436e+00  7.0375512076939328e+00  7.0405927893159070e+00  7.0435449351969606e+00  7.0464103321449345e+00  7.0491915848456355e+00  7.0518912183606428e+00  7.0545116805542412e+00  7.0570553444509194e+00  7.0595245105250521e+00  7.0619214089241691e+00  7.0642482016274348e+00  7.0665069845408270e+00  7.0686997895305286e+00  7.0708285863960691e+00  7.0728952847847042e+00  7.0749017360485453e+00  7.0768497350458821e+00  7.0787410218882014e+00  7.0805772836342991e+00  7.0823601559329692e+00  7.0840912246155652e+00  7.0857720272399467e+00  7.0874040545870205e+00  7.0889887521113311e+00  7.0905275213468988e+00  7.0920217212696706e+00  7.0934726696177570e+00  7.0948816441707301e+00  7.0962498839891612e+00  7.0975785906155524e+00  7.0988689292378488e+00  7.1001220298165792e+00  7.1013389881767779e+00  7.1025208670657198e+00  7.1036686971774774e+00  7.1047834781453547e+00  7.1058661795031615e+00  7.1069177416162583e+00  7.1079390765833450e+00  7.1089310691098406e+00  7.1098945773538098e+00  7.1108304337452033e+00  7.1117394457793264e+00  7.1126223967852571e+00  7.1134800466700927e+00  7.1143131326397011e+00  7.1151223698967501e+00  7.1159084523167557e+00  7.1166720531028052e+00  7.1174138254196393e+00  7.1181344030077689e+00  7.1188344007782396e+00  7.1195144153886645e+00  7.1201750258011272e+00  7.1208167938225264e+00  7.1214402646279433e+00  7.1220459672675194e+00  7.1226344151574530e+00  7.1232061065555481e+00  7.1237615250218598e+00  7.1243011398648877e+00  7.1248254065737875e+00  7.1253347672370522e+00  7.1258296509480967e+00  7.1263104741981609e+00  7.1267776412569379e+00  7.1272315445413383e+00  7.1276725649727286e+00  7.1281010723230818e+00  7.1285174255503136e+00  7.1289219731232265e+00  7.1293150533363407e+00  7.1296969946149682e+00  7.1300681158108263e+00  7.1304287264885069e+00  7.1307791272030530e+00  7.1311196097690166e+00  7.1314504575211428e+00  7.1317719455670918e+00  7.1320843410323018e+00  7.1323879032973956e+00  7.1326828842282284e+00  7.1329695283989167e+00  7.1332480733080086e+00  7.1335187495880579e+00  7.1337817812087581e+00  7.1340373856738983e+00  7.1342857742123025e+00  7.1345271519629305e+00  7.1347617181543832e+00  7.1349896662789050e+00  7.1352111842611450e+00  7.1354264546217703e+00  7.1356356546361344e+00  7.1358389564881470e+00  7.1360365274194812e+00  7.1362285298742938e+00  7.1364151216395610e+00  7.1365964559812074e+00  7.1367726817761410e+00  7.1369439436402864e+00  7.1371103820528283e+00  7.1372721334766869e+00  7.1374293304754133e+00  7.1375821018265801e+00  7.1377305726317628e+00  7.1378748644232930e+00  7.1380150952677663e+00  7.1381513798665228e+00  7.1382838296530977e+00  7.1384125528878091e+00  7.1385376547495207e+00  7.1386592374246813e+00  7.1387774001937423e+00  7.1388922395150187e+00  7.1390038491060528e+00  7.1391123200225977e+00  7.1392177407352628e+00  7.1393201972039035e+00  7.1394197729498199e+00  7.1395165491258377e+00  7.1396106045843180e+00  7.1397020159431932e+00  7.1397908576500555e+00  7.1398772020443637e+00  7.1399611194178414e+00  7.1400426780730974e+00  7.1401219443805530e+00  7.1401989828336827e+00  7.1402738561026791e+00  7.1403466250865151e+00  7.1404173489635268e+00  7.1404860852405116e+00  7.1405528898003858e+00  7.1406178169484864e+00  7.1406809194575160e+00  7.1407422486111818e+00  7.1408018542465790e+00  7.1408597847953477e+00  7.1409160873236335e+00  7.1409708075709100e+00  7.1410239899876524e+00  7.1410756777719593e+00  7.1411259129050855e+00  7.1411747361859890e+00  7.1412221872648454e+00  7.1412683046756200e+00  7.1413131258677058e+00  7.1413566872366427e+00  7.1413990241539631e+00  7.1414401709961757e+00  7.1414801611729262e+00  7.1415190271543425e+00  7.1415568004975931e+00  7.1415935118727161e+00  7.1416291910876675e+00  7.1416638671126833e+00  7.1416975681039343e+00  7.1417303214265093e+00  7.1417621536767379e+00  7.1417930907038887e+00  7.1418231576312312e+00  7.1418523788765125e+00  7.1418807781718492e+00  7.1419083785830493e+00  7.1419352025283764e+00  7.1419612717968048e+00  7.1419866075657366e+00  7.1420112304182126e+00  7.1420351603596526e+00  7.1420584168341072e+00  7.1420810187400487e+00  7.1421029844457209e+00  7.1421243318040499e+00  7.1421450781671396e+00  7.1421652404003382e+00  7.1421848348959323e+00  7.1422038775864349e+00  7.1422223839575008e+00  7.1422403690604828e+00  7.1422578475246237e+00  7.1422748335689219e+00  7.1422913410136397e+00  7.1423073832914987e+00  7.1423229734585565e+00  7.1423381242047785e+00  7.1423528478643146e+00  7.1423671564254674e+00  7.1423810615404149e+00  7.1423945745346211e+00  7.1424077064160088e+00  7.1424204678838530e+00  7.1424328693374477e+00  7.1424449208845084e+00  7.1424566323493410e+00  7.1424680132807961e+00  7.1424790729599774e+00  7.1424898204077554e+00  7.1425002643920514e+00  7.1425104134349295e+00  7.1425202758194741e+00  7.1425298595965030e+00  7.1425391725910528e+00  7.1425482224087151e+00  7.1425570164417787e+00  7.1425655618752009e+00  7.1425738656924151e+00  7.1425819346809742e+00  7.1425897754380365e+00  7.1425973943756880e+00  7.1426047977261327e+00  7.1426119915467199e+00  7.1426189817248469e+00  7.1426257739827097e+00  7.1426323738819315e+00  7.1426387868280479e+00  7.1426450180748873e+00  7.1426510727288113e+00  7.1426569557528357e+00  7.1426626719706512e+00  7.1426682260705174e+00  7.1426736226090526e+00  7.1426788660149150e+00  7.1426839605923904e+00  7.1426889105248632e+00  7.1426937198782028e+00  7.1426983926040588e+00  7.1427029325430391e+00  7.1427073434278396e+00  7.1427116288862429e+00  7.1427157924440605e+00  7.1427198375279932e+00  7.1427237674683939e+00  7.1427275855019685e+00  7.1427312947743911e+00  7.1427348983428551e+00  7.1427383991785494e+00  7.1427418001690608e+00  7.1427451041207091e+00  7.1427483137608307e+00  7.1427514317399847e+00  7.1427544606340909e+00  7.1427574029465353e+00  7.1427602611101850e+00  7.1427630374893614e+00  7.1427657343817677e+00  7.1427683540203448e+00  7.1427708985750860e+00  7.1427733701547895e+00  7.1427757708087833e+00  7.1427781025285757e+00  7.1427803672494834e+00  7.1427825668521852e+00  7.1427847031642759e+00  7.1427867779617280e+00  7.1427887929703466e+00  7.1427907498671592e+00  7.1427926502817982e+00  7.1427944957978076e+00  7.1427962879539386e+00  7.1427980282454016e+00  7.1427997181250742e+00  7.1428013590046895e+00  7.1428029522559857e+00  7.1428044992118220e+00  7.1428060011672514e+00  7.1428074593805899e+00  7.1428088750744303e+00  7.1428102494366419e+00  7.1428115836213335e+00  7.1428128787497984e+00  7.1428141359114159e+00  7.1428153561645491e+00  7.1428165405373942e+00  7.1428176900288376e+00  7.1428188056092390e+00  7.1428198882212408e+00  7.1428209387805346e+00  7.1428219581765937e+00  7.1428229472734044e+00  7.1428239069101647e+00  7.1428248379019657e+00  7.1428257410404568e+00  7.1428266170944816e+00  7.1428274668107061e+00  7.1428282909142204e+00  7.1428290901091271e+00  7.1428298650791096e+00  7.1428306164879851e+00  7.1428313449802454e+00  7.1428320511815704e+00  7.1428327356993329e+00  7.1428333991230915e+00  7.1428340420250640e+00  7.1428346649605787e+00  7.1428352684685299e+00  7.1428358530718059e+00  7.1428364192777067e+00  7.1428369675783498e+00  7.1428374984510610e+00  7.1428380123587516e+00  7.1428385097502876e+00  7.1428389910608541e+00  7.1428394567122844e+00  7.1428399071133972e+00  7.1428403426603264e+00  7.1428407637368210e+00  7.1428411707145534e+00  7.1428415639534091e+00  7.1428419438017565e+00  7.1428423105967322e+00  7.1428426646644958e+00  7.1428430063204722e+00  7.1428433358696122e+00  7.1428436536066107e+00  7.1428439598161440e+00  7.1428442547730757e+00  7.1428445387426747e+00  7.1428448119808099e+00  7.1428450747341454e+00  7.1428453272403249e+00  7.1428455697281539e+00  7.1428458024177663e+00  7.1428460255207797e+00  7.1428462392404786e+00  7.1428464437719326e+00  7.1428466393021637e+00  7.1428468260102633e+00  7.1428470040675442e+00  7.1428471736376489e+00  7.1428473348766746e+00  7.1428474879332873e+00  7.1428476329488282e+00  7.1428477700574060e+00  7.1428478993860081e+00  7.1428480210545802e+00  7.1428481351761128e+00  7.1428482418567310e+00  7.1428483411957560e+00  7.1428484332857813e+00  7.1428485182127384e+00  7.1428485960559556e+00  7.1428486668882121e+00  7.1428487307757926e+00  7.1428487877785312e+00  7.1428488379498534e+00  7.1428488813368096e+00  7.1428489179801176e+00  7.1428489479141763e+00  7.1428489711671030e+00  7.1428489877607415e+00  7.1428489977106917e+00  7.1428490010263026e+00  7.1428489977106917e+00  7.1428489877607415e+00  7.1428489711671022e+00  7.1428489479141746e+00  7.1428489179801176e+00  7.1428488813368087e+00  7.1428488379498534e+00  7.1428487877785312e+00  7.1428487307757926e+00  7.1428486668882103e+00  7.1428485960559538e+00  7.1428485182127366e+00  7.1428484332857796e+00  7.1428483411957542e+00  7.1428482418567292e+00  7.1428481351761084e+00  7.1428480210545731e+00  7.1428478993860036e+00  7.1428477700574042e+00  7.1428476329488255e+00  7.1428474879332873e+00  7.1428473348766754e+00  7.1428471736376506e+00  7.1428470040675469e+00  7.1428468260102642e+00  7.1428466393021637e+00  7.1428464437719335e+00  7.1428462392404786e+00  7.1428460255207789e+00  7.1428458024177628e+00  7.1428455697281530e+00  7.1428453272403249e+00  7.1428450747341445e+00  7.1428448119808090e+00  7.1428445387426756e+00  7.1428442547730775e+00  7.1428439598161440e+00  7.1428436536066107e+00  7.1428433358696122e+00  7.1428430063204713e+00  7.1428426646644940e+00  7.1428423105967305e+00  7.1428419438017556e+00  7.1428415639534055e+00  7.1428411707145507e+00  7.1428407637368174e+00  7.1428403426603220e+00  7.1428399071133937e+00  7.1428394567122799e+00  7.1428389910608541e+00  7.1428385097502884e+00  7.1428380123587525e+00  7.1428374984510601e+00  7.1428369675783525e+00  7.1428364192777067e+00  7.1428358530718059e+00  7.1428352684685272e+00  7.1428346649605770e+00  7.1428340420250631e+00  7.1428333991230959e+00  7.1428327356993364e+00  7.1428320511815722e+00  7.1428313449802481e+00  7.1428306164879869e+00  7.1428298650791087e+00  7.1428290901091271e+00  7.1428282909142213e+00  7.1428274668107079e+00  7.1428266170944825e+00  7.1428257410404576e+00  7.1428248379019665e+00  7.1428239069101656e+00  7.1428229472734035e+00  7.1428219581765937e+00  7.1428209387805355e+00  7.1428198882212408e+00  7.1428188056092372e+00  7.1428176900288376e+00  7.1428165405373978e+00  7.1428153561645500e+00  7.1428141359114159e+00  7.1428128787497966e+00  7.1428115836213335e+00  7.1428102494366419e+00  7.1428088750744312e+00  7.1428074593805908e+00  7.1428060011672541e+00  7.1428044992118256e+00  7.1428029522559902e+00  7.1428013590046930e+00  7.1427997181250777e+00  7.1427980282454078e+00  7.1427962879539475e+00  7.1427944957978147e+00  7.1427926502818035e+00  7.1427907498671654e+00  7.1427887929703529e+00  7.1427867779617378e+00  7.1427847031642822e+00  7.1427825668521896e+00  7.1427803672494861e+00  7.1427781025285828e+00  7.1427757708087896e+00  7.1427733701547949e+00  7.1427708985750886e+00  7.1427683540203448e+00  7.1427657343817650e+00  7.1427630374893578e+00  7.1427602611101815e+00  7.1427574029465335e+00  7.1427544606340909e+00  7.1427514317399821e+00  7.1427483137608290e+00  7.1427451041207055e+00  7.1427418001690590e+00  7.1427383991785520e+00  7.1427348983428560e+00  7.1427312947743902e+00  7.1427275855019658e+00  7.1427237674683930e+00  7.1427198375279897e+00  7.1427157924440570e+00  7.1427116288862376e+00  7.1427073434278388e+00  7.1427029325430391e+00  7.1426983926040588e+00  7.1426937198782028e+00  7.1426889105248632e+00  7.1426839605923904e+00  7.1426788660149150e+00  7.1426736226090526e+00  7.1426682260705174e+00  7.1426626719706521e+00  7.1426569557528365e+00  7.1426510727288131e+00  7.1426450180748873e+00  7.1426387868280496e+00  7.1426323738819333e+00  7.1426257739827124e+00  7.1426189817248495e+00  7.1426119915467208e+00  7.1426047977261335e+00  7.1425973943756897e+00  7.1425897754380392e+00  7.1425819346809778e+00  7.1425738656924160e+00  7.1425655618752018e+00  7.1425570164417795e+00  7.1425482224087169e+00  7.1425391725910536e+00  7.1425298595965030e+00  7.1425202758194741e+00  7.1425104134349295e+00  7.1425002643920514e+00  7.1424898204077554e+00  7.1424790729599774e+00  7.1424680132807961e+00  7.1424566323493428e+00  7.1424449208845093e+00  7.1424328693374504e+00  7.1424204678838539e+00  7.1424077064160088e+00  7.1423945745346220e+00  7.1423810615404149e+00  7.1423671564254674e+00  7.1423528478643146e+00  7.1423381242047794e+00  7.1423229734585592e+00  7.1423073832915014e+00  7.1422913410136406e+00  7.1422748335689219e+00  7.1422578475246201e+00  7.1422403690604765e+00  7.1422223839574981e+00  7.1422038775864314e+00  7.1421848348959296e+00  7.1421652404003346e+00  7.1421450781671378e+00  7.1421243318040490e+00  7.1421029844457209e+00  7.1420810187400487e+00  7.1420584168341108e+00  7.1420351603596570e+00  7.1420112304182162e+00  7.1419866075657357e+00  7.1419612717968004e+00  7.1419352025283702e+00  7.1419083785830439e+00  7.1418807781718439e+00  7.1418523788765098e+00  7.1418231576312303e+00  7.1417930907038869e+00  7.1417621536767362e+00  7.1417303214265058e+00  7.1416975681039352e+00  7.1416638671126815e+00  7.1416291910876666e+00  7.1415935118727125e+00  7.1415568004975931e+00  7.1415190271543372e+00  7.1414801611729262e+00  7.1414401709961748e+00  7.1413990241539578e+00  7.1413566872366383e+00  7.1413131258677014e+00  7.1412683046756156e+00  7.1412221872648418e+00  7.1411747361859854e+00  7.1411259129050828e+00  7.1410756777719566e+00  7.1410239899876524e+00  7.1409708075709108e+00  7.1409160873236344e+00  7.1408597847953486e+00  7.1408018542465799e+00  7.1407422486111845e+00  7.1406809194575169e+00  7.1406178169484873e+00  7.1405528898003867e+00  7.1404860852405143e+00  7.1404173489635276e+00  7.1403466250865142e+00  7.1402738561026764e+00  7.1401989828336792e+00  7.1401219443805513e+00  7.1400426780730983e+00  7.1399611194178405e+00  7.1398772020443655e+00  7.1397908576500573e+00  7.1397020159431932e+00  7.1396106045843162e+00  7.1395165491258350e+00  7.1394197729498217e+00  7.1393201972039071e+00  7.1392177407352646e+00  7.1391123200225994e+00  7.1390038491060555e+00  7.1388922395150196e+00  7.1387774001937450e+00  7.1386592374246831e+00  7.1385376547495225e+00  7.1384125528878135e+00  7.1382838296530977e+00  7.1381513798665184e+00  7.1380150952677628e+00  7.1378748644232877e+00  7.1377305726317593e+00  7.1375821018265757e+00  7.1374293304754124e+00  7.1372721334766833e+00  7.1371103820528239e+00  7.1369439436402820e+00  7.1367726817761392e+00  7.1365964559812083e+00  7.1364151216395575e+00  7.1362285298742911e+00  7.1360365274194812e+00  7.1358389564881444e+00  7.1356356546361326e+00  7.1354264546217676e+00  7.1352111842611432e+00  7.1349896662789032e+00  7.1347617181543805e+00  7.1345271519629332e+00  7.1342857742123025e+00  7.1340373856738992e+00  7.1337817812087554e+00  7.1335187495880561e+00  7.1332480733080068e+00  7.1329695283989176e+00  7.1326828842282275e+00  7.1323879032973947e+00  7.1320843410323027e+00  7.1317719455670936e+00  7.1314504575211481e+00  7.1311196097690184e+00  7.1307791272030556e+00  7.1304287264885060e+00  7.1300681158108254e+00  7.1296969946149629e+00  7.1293150533363345e+00  7.1289219731232247e+00  7.1285174255503136e+00  7.1281010723230818e+00  7.1276725649727304e+00  7.1272315445413401e+00  7.1267776412569415e+00  7.1263104741981635e+00  7.1258296509481021e+00  7.1253347672370539e+00  7.1248254065737902e+00  7.1243011398648912e+00  7.1237615250218624e+00  7.1232061065555516e+00  7.1226344151574565e+00  7.1220459672675256e+00  7.1214402646279487e+00  7.1208167938225317e+00  7.1201750258011289e+00  7.1195144153886671e+00  7.1188344007782431e+00  7.1181344030077742e+00  7.1174138254196446e+00  7.1166720531028069e+00  7.1159084523167584e+00  7.1151223698967527e+00  7.1143131326397020e+00  7.1134800466700936e+00  7.1126223967852571e+00  7.1117394457793255e+00  7.1108304337452024e+00  7.1098945773538098e+00  7.1089310691098442e+00  7.1079390765833468e+00  7.1069177416162645e+00  7.1058661795031650e+00  7.1047834781453574e+00  7.1036686971774792e+00  7.1025208670657252e+00  7.1013389881767797e+00  7.1001220298165784e+00  7.0988689292378471e+00  7.0975785906155515e+00  7.0962498839891595e+00  7.0948816441707310e+00  7.0934726696177579e+00  7.0920217212696723e+00  7.0905275213468988e+00  7.0889887521113