<?xml version="1.0"?>
<VTKFile type="UnstructuredGrid"  version="0.1"  >
<UnstructuredGrid>
<Piece  NumberOfPoints="1001" NumberOfCells="1000">
<Points>
<DataArray  type="Float64"  NumberOfComponents="3"  format="ascii">0 0 0  0.001 0 0  0.002 0 0  0.003 0 0  0.004 0 0  0.005 0 0  0.006 0 0  0.007 0 0  0.008 0 0  0.008999999999999999 0 0  0.01 0 0  0.011 0 0  0.012 0 0  0.013 0 0  0.014 0 0  0.015 0 0  0.016 0 0  0.017 0 0  0.018 0 0  0.019 0 0  0.02 0 0  0.021 0 0  0.022 0 0  0.023 0 0  0.024 0 0  0.025 0 0  0.026 0 0  0.027 0 0  0.028 0 0  0.029 0 0  0.03 0 0  0.031 0 0  0.032 0 0  0.033 0 0  0.034 0 0  0.035 0 0  0.036 0 0  0.037 0 0  0.038 0 0  0.039 0 0  0.04 0 0  0.041 0 0  0.042 0 0  0.043 0 0  0.044 0 0  0.045 0 0  0.046 0 0  0.047 0 0  0.048 0 0  0.049 0 0  0.05 0 0  0.051 0 0  0.052 0 0  0.053 0 0  0.054 0 0  0.055 0 0  0.056 0 0  0.057 0 0  0.058 0 0  0.059 0 0  0.06 0 0  0.061 0 0  0.062 0 0  0.063 0 0  0.064 0 0  0.065 0 0  0.066 0 0  0.067 0 0  0.068 0 0  0.06900000000000001 0 0  0.07000000000000001 0 0  0.07099999999999999 0 0  0.07199999999999999 0 0  0.073 0 0  0.074 0 0  0.075 0 0  0.076 0 0  0.077 0 0  0.078 0 0  0.079 0 0  0.08 0 0  0.081 0 0  0.082 0 0  0.083 0 0  0.08400000000000001 0 0  0.08500000000000001 0 0  0.08599999999999999 0 0  0.08699999999999999 0 0  0.08799999999999999 0 0  0.089 0 0  0.09 0 0  0.091 0 0  0.092 0 0  0.093 0 0  0.094 0 0  0.095 0 0  0.096 0 0  0.097 0 0  0.098 0 0  0.099 0 0  0.1 0 0  0.101 0 0  0.102 0 0  0.103 0 0  0.104 0 0  0.105 0 0  0.106 0 0  0.107 0 0  0.108 0 0  0.109 0 0  0.11 0 0  0.111 0 0  0.112 0 0  0.113 0 0  0.114 0 0  0.115 0 0  0.116 0 0  0.117 0 0  0.118 0 0  0.119 0 0  0.12 0 0  0.121 0 0  0.122 0 0  0.123 0 0  0.124 0 0  0.125 0 0  0.126 0 0  0.127 0 0  0.128 0 0  0.129 0 0  0.13 0 0  0.131 0 0  0.132 0 0  0.133 0 0  0.134 0 0  0.135 0 0  0.136 0 0  0.137 0 0  0.138 0 0  0.139 0 0  0.14 0 0  0.141 0 0  0.142 0 0  0.143 0 0  0.144 0 0  0.145 0 0  0.146 0 0  0.147 0 0  0.148 0 0  0.149 0 0  0.15 0 0  0.151 0 0  0.152 0 0  0.153 0 0  0.154 0 0  0.155 0 0  0.156 0 0  0.157 0 0  0.158 0 0  0.159 0 0  0.16 0 0  0.161 0 0  0.162 0 0  0.163 0 0  0.164 0 0  0.165 0 0  0.166 0 0  0.167 0 0  0.168 0 0  0.169 0 0  0.17 0 0  0.171 0 0  0.172 0 0  0.173 0 0  0.174 0 0  0.175 0 0  0.176 0 0  0.177 0 0  0.178 0 0  0.179 0 0  0.18 0 0  0.181 0 0  0.182 0 0  0.183 0 0  0.184 0 0  0.185 0 0  0.186 0 0  0.187 0 0  0.188 0 0  0.189 0 0  0.19 0 0  0.191 0 0  0.192 0 0  0.193 0 0  0.194 0 0  0.195 0 0  0.196 0 0  0.197 0 0  0.198 0 0  0.199 0 0  0.2 0 0  0.201 0 0  0.202 0 0  0.203 0 0  0.204 0 0  0.205 0 0  0.206 0 0  0.207 0 0  0.208 0 0  0.209 0 0  0.21 0 0  0.211 0 0  0.212 0 0  0.213 0 0  0.214 0 0  0.215 0 0  0.216 0 0  0.217 0 0  0.218 0 0  0.219 0 0  0.22 0 0  0.221 0 0  0.222 0 0  0.223 0 0  0.224 0 0  0.225 0 0  0.226 0 0  0.227 0 0  0.228 0 0  0.229 0 0  0.23 0 0  0.231 0 0  0.232 0 0  0.233 0 0  0.234 0 0  0.235 0 0  0.236 0 0  0.237 0 0  0.238 0 0  0.239 0 0  0.24 0 0  0.241 0 0  0.242 0 0  0.243 0 0  0.244 0 0  0.245 0 0  0.246 0 0  0.247 0 0  0.248 0 0  0.249 0 0  0.25 0 0  0.251 0 0  0.252 0 0  0.253 0 0  0.254 0 0  0.255 0 0  0.256 0 0  0.257 0 0  0.258 0 0  0.259 0 0  0.26 0 0  0.261 0 0  0.262 0 0  0.263 0 0  0.264 0 0  0.265 0 0  0.266 0 0  0.267 0 0  0.268 0 0  0.269 0 0  0.27 0 0  0.271 0 0  0.272 0 0  0.273 0 0  0.274 0 0  0.275 0 0  0.276 0 0  0.277 0 0  0.278 0 0  0.279 0 0  0.28 0 0  0.281 0 0  0.282 0 0  0.283 0 0  0.284 0 0  0.285 0 0  0.286 0 0  0.287 0 0  0.288 0 0  0.289 0 0  0.29 0 0  0.291 0 0  0.292 0 0  0.293 0 0  0.294 0 0  0.295 0 0  0.296 0 0  0.297 0 0  0.298 0 0  0.299 0 0  0.3 0 0  0.301 0 0  0.302 0 0  0.303 0 0  0.304 0 0  0.305 0 0  0.306 0 0  0.307 0 0  0.308 0 0  0.309 0 0  0.31 0 0  0.311 0 0  0.312 0 0  0.313 0 0  0.314 0 0  0.315 0 0  0.316 0 0  0.317 0 0  0.318 0 0  0.319 0 0  0.32 0 0  0.321 0 0  0.322 0 0  0.323 0 0  0.324 0 0  0.325 0 0  0.326 0 0  0.327 0 0  0.328 0 0  0.329 0 0  0.33 0 0  0.331 0 0  0.332 0 0  0.333 0 0  0.334 0 0  0.335 0 0  0.336 0 0  0.337 0 0  0.338 0 0  0.339 0 0  0.34 0 0  0.341 0 0  0.342 0 0  0.343 0 0  0.344 0 0  0.345 0 0  0.346 0 0  0.347 0 0  0.348 0 0  0.349 0 0  0.35 0 0  0.351 0 0  0.352 0 0  0.353 0 0  0.354 0 0  0.355 0 0  0.356 0 0  0.357 0 0  0.358 0 0  0.359 0 0  0.36 0 0  0.361 0 0  0.362 0 0  0.363 0 0  0.364 0 0  0.365 0 0  0.366 0 0  0.367 0 0  0.368 0 0  0.369 0 0  0.37 0 0  0.371 0 0  0.372 0 0  0.373 0 0  0.374 0 0  0.375 0 0  0.376 0 0  0.377 0 0  0.378 0 0  0.379 0 0  0.38 0 0  0.381 0 0  0.382 0 0  0.383 0 0  0.384 0 0  0.385 0 0  0.386 0 0  0.387 0 0  0.388 0 0  0.389 0 0  0.39 0 0  0.391 0 0  0.392 0 0  0.393 0 0  0.394 0 0  0.395 0 0  0.396 0 0  0.397 0 0  0.398 0 0  0.399 0 0  0.4 0 0  0.401 0 0  0.402 0 0  0.403 0 0  0.404 0 0  0.405 0 0  0.406 0 0  0.407 0 0  0.408 0 0  0.409 0 0  0.41 0 0  0.411 0 0  0.412 0 0  0.413 0 0  0.414 0 0  0.415 0 0  0.416 0 0  0.417 0 0  0.418 0 0  0.419 0 0  0.42 0 0  0.421 0 0  0.422 0 0  0.423 0 0  0.424 0 0  0.425 0 0  0.426 0 0  0.427 0 0  0.428 0 0  0.429 0 0  0.43 0 0  0.431 0 0  0.432 0 0  0.433 0 0  0.434 0 0  0.435 0 0  0.436 0 0  0.437 0 0  0.438 0 0  0.439 0 0  0.44 0 0  0.441 0 0  0.442 0 0  0.443 0 0  0.444 0 0  0.445 0 0  0.446 0 0  0.447 0 0  0.448 0 0  0.449 0 0  0.45 0 0  0.451 0 0  0.452 0 0  0.453 0 0  0.454 0 0  0.455 0 0  0.456 0 0  0.457 0 0  0.458 0 0  0.459 0 0  0.46 0 0  0.461 0 0  0.462 0 0  0.463 0 0  0.464 0 0  0.465 0 0  0.466 0 0  0.467 0 0  0.468 0 0  0.469 0 0  0.47 0 0  0.471 0 0  0.472 0 0  0.473 0 0  0.474 0 0  0.475 0 0  0.476 0 0  0.477 0 0  0.478 0 0  0.479 0 0  0.48 0 0  0.481 0 0  0.482 0 0  0.483 0 0  0.484 0 0  0.485 0 0  0.486 0 0  0.487 0 0  0.488 0 0  0.489 0 0  0.49 0 0  0.491 0 0  0.492 0 0  0.493 0 0  0.494 0 0  0.495 0 0  0.496 0 0  0.497 0 0  0.498 0 0  0.499 0 0  0.5 0 0  0.501 0 0  0.502 0 0  0.503 0 0  0.504 0 0  0.505 0 0  0.506 0 0  0.507 0 0  0.508 0 0  0.509 0 0  0.51 0 0  0.511 0 0  0.512 0 0  0.513 0 0  0.514 0 0  0.515 0 0  0.516 0 0  0.517 0 0  0.518 0 0  0.519 0 0  0.52 0 0  0.521 0 0  0.522 0 0  0.523 0 0  0.524 0 0  0.525 0 0  0.526 0 0  0.527 0 0  0.528 0 0  0.529 0 0  0.53 0 0  0.531 0 0  0.532 0 0  0.533 0 0  0.534 0 0  0.535 0 0  0.536 0 0  0.537 0 0  0.538 0 0  0.539 0 0  0.54 0 0  0.541 0 0  0.542 0 0  0.543 0 0  0.544 0 0  0.545 0 0  0.546 0 0  0.547 0 0  0.548 0 0  0.549 0 0  0.55 0 0  0.551 0 0  0.552 0 0  0.553 0 0  0.554 0 0  0.555 0 0  0.556 0 0  0.5570000000000001 0 0  0.5580000000000001 0 0  0.5590000000000001 0 0  0.5600000000000001 0 0  0.5610000000000001 0 0  0.5620000000000001 0 0  0.5629999999999999 0 0  0.5639999999999999 0 0  0.5649999999999999 0 0  0.5659999999999999 0 0  0.5669999999999999 0 0  0.5679999999999999 0 0  0.569 0 0  0.57 0 0  0.571 0 0  0.572 0 0  0.573 0 0  0.574 0 0  0.575 0 0  0.576 0 0  0.577 0 0  0.578 0 0  0.579 0 0  0.58 0 0  0.581 0 0  0.582 0 0  0.583 0 0  0.584 0 0  0.585 0 0  0.586 0 0  0.587 0 0  0.588 0 0  0.589 0 0  0.59 0 0  0.591 0 0  0.592 0 0  0.593 0 0  0.594 0 0  0.595 0 0  0.596 0 0  0.597 0 0  0.598 0 0  0.599 0 0  0.6 0 0  0.601 0 0  0.602 0 0  0.603 0 0  0.604 0 0  0.605 0 0  0.606 0 0  0.607 0 0  0.608 0 0  0.609 0 0  0.61 0 0  0.611 0 0  0.612 0 0  0.613 0 0  0.614 0 0  0.615 0 0  0.616 0 0  0.617 0 0  0.618 0 0  0.619 0 0  0.62 0 0  0.621 0 0  0.622 0 0  0.623 0 0  0.624 0 0  0.625 0 0  0.626 0 0  0.627 0 0  0.628 0 0  0.629 0 0  0.63 0 0  0.631 0 0  0.632 0 0  0.633 0 0  0.634 0 0  0.635 0 0  0.636 0 0  0.637 0 0  0.638 0 0  0.639 0 0  0.64 0 0  0.641 0 0  0.642 0 0  0.643 0 0  0.644 0 0  0.645 0 0  0.646 0 0  0.647 0 0  0.648 0 0  0.649 0 0  0.65 0 0  0.651 0 0  0.652 0 0  0.653 0 0  0.654 0 0  0.655 0 0  0.656 0 0  0.657 0 0  0.658 0 0  0.659 0 0  0.66 0 0  0.661 0 0  0.662 0 0  0.663 0 0  0.664 0 0  0.665 0 0  0.666 0 0  0.667 0 0  0.668 0 0  0.669 0 0  0.67 0 0  0.671 0 0  0.672 0 0  0.673 0 0  0.674 0 0  0.675 0 0  0.676 0 0  0.677 0 0  0.678 0 0  0.679 0 0  0.68 0 0  0.681 0 0  0.6820000000000001 0 0  0.6830000000000001 0 0  0.6840000000000001 0 0  0.6850000000000001 0 0  0.6860000000000001 0 0  0.6870000000000001 0 0  0.6879999999999999 0 0  0.6889999999999999 0 0  0.6899999999999999 0 0  0.6909999999999999 0 0  0.6919999999999999 0 0  0.6929999999999999 0 0  0.694 0 0  0.695 0 0  0.696 0 0  0.697 0 0  0.698 0 0  0.699 0 0  0.7 0 0  0.701 0 0  0.702 0 0  0.703 0 0  0.704 0 0  0.705 0 0  0.706 0 0  0.707 0 0  0.708 0 0  0.709 0 0  0.71 0 0  0.711 0 0  0.712 0 0  0.713 0 0  0.714 0 0  0.715 0 0  0.716 0 0  0.717 0 0  0.718 0 0  0.719 0 0  0.72 0 0  0.721 0 0  0.722 0 0  0.723 0 0  0.724 0 0  0.725 0 0  0.726 0 0  0.727 0 0  0.728 0 0  0.729 0 0  0.73 0 0  0.731 0 0  0.732 0 0  0.733 0 0  0.734 0 0  0.735 0 0  0.736 0 0  0.737 0 0  0.738 0 0  0.739 0 0  0.74 0 0  0.741 0 0  0.742 0 0  0.743 0 0  0.744 0 0  0.745 0 0  0.746 0 0  0.747 0 0  0.748 0 0  0.749 0 0  0.75 0 0  0.751 0 0  0.752 0 0  0.753 0 0  0.754 0 0  0.755 0 0  0.756 0 0  0.757 0 0  0.758 0 0  0.759 0 0  0.76 0 0  0.761 0 0  0.762 0 0  0.763 0 0  0.764 0 0  0.765 0 0  0.766 0 0  0.767 0 0  0.768 0 0  0.769 0 0  0.77 0 0  0.771 0 0  0.772 0 0  0.773 0 0  0.774 0 0  0.775 0 0  0.776 0 0  0.777 0 0  0.778 0 0  0.779 0 0  0.78 0 0  0.781 0 0  0.782 0 0  0.783 0 0  0.784 0 0  0.785 0 0  0.786 0 0  0.787 0 0  0.788 0 0  0.789 0 0  0.79 0 0  0.791 0 0  0.792 0 0  0.793 0 0  0.794 0 0  0.795 0 0  0.796 0 0  0.797 0 0  0.798 0 0  0.799 0 0  0.8 0 0  0.801 0 0  0.802 0 0  0.803 0 0  0.804 0 0  0.805 0 0  0.806 0 0  0.8070000000000001 0 0  0.8080000000000001 0 0  0.8090000000000001 0 0  0.8100000000000001 0 0  0.8110000000000001 0 0  0.8120000000000001 0 0  0.8129999999999999 0 0  0.8139999999999999 0 0  0.8149999999999999 0 0  0.8159999999999999 0 0  0.8169999999999999 0 0  0.8179999999999999 0 0  0.819 0 0  0.82 0 0  0.821 0 0  0.822 0 0  0.823 0 0  0.824 0 0  0.825 0 0  0.826 0 0  0.827 0 0  0.828 0 0  0.829 0 0  0.83 0 0  0.831 0 0  0.832 0 0  0.833 0 0  0.834 0 0  0.835 0 0  0.836 0 0  0.837 0 0  0.838 0 0  0.839 0 0  0.84 0 0  0.841 0 0  0
[...]
<PointData  Scalars="f_20-0"> 
<DataArray  type="Float64"  Name="f_20-0"  format="ascii">2.0000001574323769e+00  2.0000001588564165e+00  2.0000001631525821e+00  2.0000001703933883e+00  2.0000001807009520e+00  2.0000001942488961e+00  2.0000002112650517e+00  2.0000002320350085e+00  2.0000002569065436e+00  2.0000002862950033e+00  2.0000003206897201e+00  2.0000003606615415e+00  2.0000004068715813e+00  2.0000004600813241e+00  2.0000005211642118e+00  2.0000005911188810e+00  2.0000006710842260e+00  2.0000007623565055e+00  2.0000008664087203e+00  2.0000009849125195e+00  2.0000011197629477e+00  2.0000012731063448e+00  2.0000014473717944e+00  2.0000016453065186e+00  2.0000018700156956e+00  2.0000021250072311e+00  2.0000024142420481e+00  2.0000027421905631e+00  2.0000031138960730e+00  2.0000035350458565e+00  2.0000040120509079e+00  2.0000045521352949e+00  2.0000051634362728e+00  2.0000058551163979e+00  2.0000066374890300e+00  2.0000075221587652e+00  2.0000085221785091e+00  2.0000096522251067e+00  2.0000109287956285e+00  2.0000123704266617e+00  2.0000139979392180e+00  2.0000158347121175e+00  2.0000179069870789e+00  2.0000202442090131e+00  2.0000228794054755e+00  2.0000258496095742e+00  2.0000291963311652e+00  2.0000329660815979e+00  2.0000372109578843e+00  2.0000419892927495e+00  2.0000473663776868e+00  2.0000534152669034e+00  2.0000602176708138e+00  2.0000678649486452e+00  2.0000764592106779e+00  2.0000861145417068e+00  2.0000969583584687e+00  2.0001091329150338e+00  2.0001227969715560e+00  2.0001381276432828e+00  2.0001553224483550e+00  2.0001746015747313e+00  2.0001962103885211e+00  2.0002204222080890e+00  2.0002475413706553e+00  2.0002779066205445e+00  2.0003118948509657e+00  2.0003499252341306e+00  2.0003924637776422e+00  2.0004400283485153e+00  2.0004931942098456e+00  2.0005526001190699e+00  2.0006189550410123e+00  2.0006930455334202e+00  2.0007757438675453e+00  2.0008680169514923e+00  2.0009709361295167e+00  2.0010856879363175e+00  2.0012135858914841e+00  2.0013560834257418e+00  2.0015147880374338e+00  2.0016914767847500e+00  2.0018881132265571e+00  2.0021068659322494e+00  2.0023501286887941e+00  2.0026205425409458e+00  2.0029210198084848e+00  2.0032547702320511e+00  2.0036253294066406e+00  2.0040365896688885e+00  2.0044928336107444e+00  2.0049987703976191e+00  2.0055595750735109e+00  2.0061809310383709e+00  2.0068690758837699e+00  2.0076308507712484e+00  2.0084737535328911e+00  2.0094059956651500e+00  2.0104365633736747e+00  2.0115752828082907e+00  2.0128328896020040e+00  2.0142211027949433e+00  2.0157527031820952e+00  2.0174416160711623e+00  2.0193029983720971e+00  2.0213533298612649e+00  2.0236105083687477e+00  2.0260939485251330e+00  2.0288246835721981e+00  2.0318254695882105e+00  2.0351208913012448e+00  2.0387374684613229e+00  2.0427037615130006e+00  2.0470504750535561e+00  2.0518105572783023e+00  2.0570192933047626e+00  2.0627143899342570e+00  2.0689360490569064e+00  2.0757270265407914e+00  2.0831326730768591e+00  2.0912009530901141e+00  2.0999824374899241e+00  2.1095302657367165e+00  2.1199000724713883e+00  2.1311498738135835e+00  2.1433399084148310e+00  2.1565324284841227e+00  2.1707914363195928e+00  2.1861823624129166e+00  2.2027716819719618e+00  2.2206264677556788e+00  2.2398138784474306e+00  2.2604005834105489e+00  2.2824521265581001e+00  2.3060322341934252e+00  2.3312020739828800e+00  2.3580194746281462e+00  2.3865381182115359e+00  2.4168067194732297e+00  2.4488682083105648e+00  2.4827589334264535e+00  2.5185079061610822e+00  2.5561361039984889e+00  2.5956558529545033e+00  2.6370703069706045e+00  2.6803730405514128e+00  2.7255477682357077e+00  2.7725682011779247e+00  2.8213980472826212e+00  2.8719911571607355e+00  2.9242918138710206e+00  2.9782351601901760e+00  3.0337477532306161e+00  3.0907482327828841e+00  3.1491480869508188e+00  3.2088524965770286e+00  3.2697612386784205e+00  3.3317696286306333e+00  3.3947694811140177e+00  3.4586500707813999e+00  3.5232990751200894e+00  3.5886034839299881e+00  3.6544504620924858e+00  3.7207281547292883e+00  3.7873264263257469e+00  3.8541375278144780e+00  3.9210566878970181e+00  3.9879826269593428e+00  4.0548179937679167e+00  4.1214697266914939e+00  4.1878493424723304e+00  4.2538731565738308e+00  4.3194624398757862e+00  4.3845435169962936e+00  4.4490478118185086e+00  4.5129118459208168e+00  4.5760771955806216e+00  4.6384904128741882e+00  4.7001029161549130e+00  4.7608708548840992e+00  4.8207549534337355e+00  4.8797203380972682e+00  4.9377363511477572e+00  4.9947763553846789e+00  5.0508175322206750e+00  5.1058406759850401e+00  5.1598299867665611e+00  5.2127728637881026e+00  5.2646597010011211e+00  5.3154836863109329e+00  5.3652406055932511e+00  5.4139286524385941e+00  5.4615482443625218e+00  5.5081018460450419e+00  5.5535938000100984e+00  5.5980301650242188e+00  5.6414185623802782e+00  5.6837680301361830e+00  5.7250888852973008e+00  5.7653925938640720e+00  5.8046916486107856e+00  5.8429994544166552e+00  5.8803302209345398e+00  5.9166988623550951e+00  5.9521209040031682e+00  5.9866123954884678e+00  6.0201898301225594e+00  6.0528700703086802e+00  6.0846702786086899e+00  6.1156078541925023e+00  6.1457003743784604e+00  6.1749655409785564e+00  6.2034211311692324e+00  6.2310849526164978e+00  6.2579748025932744e+00  6.2841084308365351e+00  6.3095035059020592e+00  6.3341775847851629e+00  6.3581480855864774e+00  6.3814322630125258e+00  6.4040471865116411e+00  6.4260097208561406e+00  6.4473365089921479e+00  6.4680439569883941e+00  6.4881482209251358e+00  6.5076651955737539e+00  6.5266105047266105e+00  6.5449994930454878e+00  6.5628472193052234e+00  6.5801684509170517e+00  6.5969776596237679e+00  6.6132890182659576e+00  6.6291163985253494e+00  6.6444733695577041e+00  6.6593731974338866e+00  6.6738288453132686e+00  6.6878529742792141e+00  6.7014579447713656e+00  6.7146558185542231e+00  6.7274583611660281e+00  6.7398770447961089e+00  6.7519230515428719e+00  6.7636072770081572e+00  6.7749403341872867e+00  6.7859325576172109e+00  6.7965940077482525e+00  6.8069344755076999e+00  6.8169634870261424e+00  6.8266903084998516e+00  6.8361239511647716e+00  6.8452731763598216e+00  6.8541465006591302e+00  6.8627522010546551e+00  6.8710983201723321e+00  6.8791926715064511e+00  6.8870428446583940e+00  6.8946562105672591e+00  6.9020399267210779e+00  6.9092009423384937e+00  6.9161460035118836e+00  6.9228816583037736e+00  6.9294142617894519e+00  6.9357499810393390e+00  6.9418948000355796e+00  6.9478545245180117e+00  6.9536347867551500e+00  6.9592410502366944e+00  6.9646786142843506e+00  6.9699526185784197e+00  6.9750680475979827e+00  6.9800297349729457e+00  6.9848423677466283e+00  6.9895104905478256e+00  6.9940385096717224e+00  6.9984306970691552e+00  7.0026911942441670e+00  7.0068240160598503e+00  7.0108330544527933e+00  7.0147220820566165e+00  7.0184947557352011e+00  7.0221546200264520e+00  7.0257051104974524e+00  7.0291495570121088e+00  7.0324911869123925e+00  7.0357331281144138e+00  7.0388784121206767e+00  7.0419299769498336e+00  7.0448906699854428e+00  7.0477632507451418e+00  7.0505503935718439e+00  7.0532546902484388e+00  7.0558786525376282e+00  7.0584247146484937e+00  7.0608952356313806e+00  7.0632925017027697e+00  7.0656187285017236e+00  7.0678760632795399e+00  7.0700665870242787e+00  7.0721923165217015e+00  7.0742552063542821e+00  7.0762571508398651e+00  7.0781999859115174e+00  7.0800854909401840e+00  7.0819153905016012e+00  7.0836913560890560e+00  7.0854150077734355e+00  7.0870879158120381e+00  7.0887116022075807e+00  7.0902875422188352e+00  7.0918171658242457e+00  7.0933018591398858e+00  7.0947429657931345e+00  7.0961417882532869e+00  7.0974995891204200e+00  7.0988175923737602e+00  7.1000969845807322e+00  7.1013389160678919e+00  7.1025445020548883e+00  7.1037148237525747e+00  7.1048509294263900e+00  7.1059538354260194e+00  7.1070245271824630e+00  7.1080639601733999e+00  7.1090730608579706e+00  7.1100527275818024e+00  7.1110038314533135e+00  7.1119272171921208e+00  7.1128237039504869e+00  7.1136940861085982e+00  7.1145391340445689e+00  7.1153595948799140e+00  7.1161561932013173e+00  7.1169296317594073e+00  7.1176805921453177e+00  7.1184097354457094e+00  7.1191177028769399e+00  7.1198051163991138e+00  7.1204725793105705e+00  7.1211206768234794e+00  7.1217499766211940e+00  7.1223610293978545e+00  7.1229543693809099e+00  7.1235305148370518e+00  7.1240899685621137e+00  7.1246332183554637e+00  7.1251607374793622e+00  7.1256729851038214e+00  7.1261704067373666e+00  7.1266534346442381e+00  7.1271224882483910e+00  7.1275779745247849e+00  7.1280202883783277e+00  7.1284498130109260e+00  7.1288669202769634e+00  7.1292719710276327e+00  7.1296653154444627e+00  7.1300472933623755e+00  7.1304182345826606e+00  7.1307784591761205e+00  7.1311282777767806e+00  7.1314679918663977e+00  7.1317978940501359e+00  7.1321182683236151e+00  7.1324293903316960e+00  7.1327315276191996e+00  7.1330249398738461e+00  7.1333098791616738e+00  7.1335865901551649e+00  7.1338553103543214e+00  7.1341162703008996e+00  7.1343696937860601e+00  7.1346157980515965e+00  7.1348547939849976e+00  7.1350868863084891e+00  7.1353122737622963e+00  7.1355311492822739e+00  7.1357437001721165e+00  7.1359501082702810e+00  7.1361505501118314e+00  7.1363451970853484e+00  7.1365342155850442e+00  7.1367177671582800e+00  7.1368960086485700e+00  7.1370690923342810e+00  7.1372371660631133e+00  7.1374003733825022e+00  7.1375588536661301e+00  7.1377127422365483e+00  7.1378621704841905e+00  7.1380072659827212e+00  7.1381481526009942e+00  7.1382849506115971e+00  7.1384177767961887e+00  7.1385467445476358e+00  7.1386719639691583e+00  7.1387935419704620e+00  7.1389115823610485e+00  7.1390261859407236e+00  7.1391374505874294e+00  7.1392454713424627e+00  7.1393503404931877e+00  7.1394521476532704e+00  7.1395509798405694e+00  7.1396469215527159e+00  7.1397400548404679e+00  7.1398304593789073e+00  7.1399182125365437e+00  7.1400033894423878e+00  7.1400860630510552e+00  7.1401663042059704e+00  7.1402441817007132e+00  7.1403197623385877e+00  7.1403931109904279e+00  7.1404642906507387e+00  7.1405333624921967e+00  7.1406003859185461e+00  7.1406654186159892e+00  7.1407285166030485e+00  7.1407897342790054e+00  7.1408491244709218e+00  7.1409067384793046e+00  7.1409626261224268e+00  7.1410168357793813e+00  7.1410694144318807e+00  7.1411204077048396e+00  7.1411698599057836e+00  7.1412178140630935e+00  7.1412643119631696e+00  7.1413093941864689e+00  7.1413531001425232e+00  7.1413954681039069e+00  7.1414365352392251e+00  7.1414763376450985e+00  7.1415149103772171e+00  7.1415522874804633e+00  7.1415885020181182e+00  7.1416235861001853e+00  7.1416575709108647e+00  7.1416904867351452e+00  7.1417223629846021e+00  7.1417532282223464e+00  7.1417831101872018e+00  7.1418120358170931e+00  7.1418400312716503e+00  7.1418671219540730e+00  7.1418933325322422e+00  7.1419186869591114e+00  7.1419432084923677e+00  7.1419669197133819e+00  7.1419898425454980e+00  7.1420119982715820e+00  7.1420334075509597e+00  7.1420540904356340e+00  7.1420740663859075e+00  7.1420933542853220e+00  7.1421119724550097e+00  7.1421299386673871e+00  7.1421472701593016e+00  7.1421639836445472e+00  7.1421800953258137e+00  7.1421956209061035e+00  7.1422105755995542e+00  7.1422249741417874e+00  7.1422388307996778e+00  7.1422521593806794e+00  7.1422649732416232e+00  7.1422772852970722e+00  7.1422891080272120e+00  7.1423004534853094e+00  7.1423113333047459e+00  7.1423217587056582e+00  7.1423317405011817e+00  7.1423412891033271e+00  7.1423504145285159e+00  7.1423591264027486e+00  7.1423674339664878e+00  7.1423753460792057e+00  7.1423828712236528e+00  7.1423900175098520e+00  7.1423967926788183e+00  7.1424032041060403e+00  7.1424092588047134e+00  7.1424149634287630e+00  7.1424203242756308e+00  7.1424253472888788e+00  7.1424300380605974e+00  7.1424344018336141e+00  7.1424384435035435e+00  7.1424421676206684e+00  7.1424455783916558e+00  7.1424486796811202e+00  7.1424514750130479e+00  7.1424539675720640e+00  7.1424561602045920e+00  7.1424580554198487e+00  7.1424596553907360e+00  7.1424609619545931e+00  7.1424619766138404e+00  7.1424627005364911e+00  7.1424631345565555e+00  7.1424632791743301e+00  7.1424631345565572e+00  7.1424627005364920e+00  7.1424619766138413e+00  7.1424609619545931e+00  7.1424596553907360e+00  7.1424580554198487e+00  7.1424561602045911e+00  7.1424539675720631e+00  7.1424514750130479e+00  7.1424486796811202e+00  7.1424455783916549e+00  7.1424421676206666e+00  7.1424384435035400e+00  7.1424344018336114e+00  7.1424300380605956e+00  7.1424253472888761e+00  7.1424203242756255e+00  7.1424149634287568e+00  7.1424092588047063e+00  7.1424032041060332e+00  7.1423967926788139e+00  7.1423900175098476e+00  7.1423828712236466e+00  7.1423753460791986e+00  7.1423674339664815e+00  7.1423591264027415e+00  7.1423504145285097e+00  7.1423412891033236e+00  7.1423317405011781e+00  7.1423217587056556e+00  7.1423113333047459e+00  7.1423004534853112e+00  7.1422891080272155e+00  7.1422772852970757e+00  7.1422649732416250e+00  7.1422521593806811e+00  7.1422388307996778e+00  7.1422249741417865e+00  7.1422105755995551e+00  7.1421956209060991e+00  7.1421800953258119e+00  7.1421639836445463e+00  7.1421472701593034e+00  7.1421299386673889e+00  7.1421119724550080e+00  7.1420933542853220e+00  7.1420740663859048e+00  7.1420540904356313e+00  7.1420334075509579e+00  7.1420119982715820e+00  7.1419898425454953e+00  7.1419669197133819e+00  7.1419432084923660e+00  7.1419186869591140e+00  7.1418933325322467e+00  7.1418671219540757e+00  7.1418400312716530e+00  7.1418120358170958e+00  7.1417831101872045e+00  7.1417532282223490e+00  7.1417223629846056e+00  7.1416904867351478e+00  7.1416575709108638e+00  7.1416235861001862e+00  7.1415885020181165e+00  7.1415522874804624e+00  7.1415149103772197e+00  7.1414763376450994e+00  7.1414365352392268e+00  7.1413954681039060e+00  7.1413531001425223e+00  7.1413093941864689e+00  7.1412643119631714e+00  7.1412178140630962e+00  7.1411698599057836e+00  7.1411204077048396e+00  7.1410694144318789e+00  7.1410168357793786e+00  7.1409626261224250e+00  7.1409067384793046e+00  7.1408491244709227e+00  7.1407897342790063e+00  7.1407285166030512e+00  7.1406654186159919e+00  7.1406003859185496e+00  7.1405333624921994e+00  7.1404642906507387e+00  7.1403931109904235e+00  7.1403197623385850e+00  7.1402441817007105e+00  7.1401663042059669e+00  7.1400860630510525e+00  7.1400033894423878e+00  7.1399182125365463e+00  7.1398304593789099e+00  7.1397400548404679e+00  7.1396469215527159e+00  7.1395509798405694e+00  7.1394521476532713e+00  7.1393503404931877e+00  7.1392454713424609e+00  7.1391374505874277e+00  7.1390261859407227e+00  7.1389115823610494e+00  7.1387935419704656e+00  7.1386719639691583e+00  7.1385467445476358e+00  7.1384177767961878e+00  7.1382849506115971e+00  7.1381481526009916e+00  7.1380072659827185e+00  7.1378621704841860e+00  7.1377127422365447e+00  7.1375588536661221e+00  7.1374003733824987e+00  7.1372371660631089e+00  7.1370690923342801e+00  7.1368960086485700e+00  7.1367177671582809e+00  7.1365342155850451e+00  7.1363451970853475e+00  7.1361505501118314e+00  7.1359501082702810e+00  7.1357437001721165e+00  7.1355311492822748e+00  7.1353122737622954e+00  7.1350868863084873e+00  7.1348547939849958e+00  7.1346157980515983e+00  7.1343696937860619e+00  7.1341162703009005e+00  7.1338553103543205e+00  7.1335865901551658e+00  7.1333098791616747e+00  7.1330249398738461e+00  7.1327315276191987e+00  7.1324293903316969e+00  7.1321182683236168e+00  7.1317978940501376e+00  7.1314679918664039e+00  7.1311282777767842e+00  7.1307784591761250e+00  7.1304182345826641e+00  7.1300472933623800e+00  7.1296653154444654e+00  7.1292719710276380e+00  7.1288669202769670e+00  7.1284498130109286e+00  7.1280202883783295e+00  7.1275779745247849e+00  7.1271224882483928e+00  7.1266534346442381e+00  7.1261704067373657e+00  7.1256729851038170e+00  7.1251607374793604e+00  7.1246332183554619e+00  7.1240899685621120e+00  7.1235305148370518e+00  7.1229543693809099e+00  7.1223610293978563e+00  7.1217499766211958e+00  7.1211206768234785e+00  7.1204725793105661e+00  7.1198051163991112e+00  7.1191177028769372e+00  7.1184097354457050e+00  7.1176805921453195e+00  7.1169296317594073e+00  7.1161561932013173e+00  7.1153595948799131e+00  7.1145391340445663e+00  7.1136940861085973e+00  7.1128237039504869e+00  7.1119272171921226e+00  7.1110038314533144e+00  7.1100527275818042e+00  7.1090730608579715e+00  7.1080639601734017e+00  7.1070245271824648e+00  7.1059538354260230e+00  7.1048509294263882e+00  7.1037148237525711e+00  7.1025445020548839e+00  7.1013389160678875e+00  7.1000969845807287e+00  7.0988175923737566e+00  7.0974995891204156e+00  7.0961417882532833e+00  7.0947429657931336e+00  7.0933018591398831e+00  7.0918171658242448e+00  7.0902875422188361e+00  7.0887116022075825e+00  7.0870879158120408e+00  7.0854150077734372e+00  7.0836913560890578e+00  7.0819153905016012e+00  7.0800854909401814e+00  7.0781999859115148e+00  7.0762571508398597e+00  7.0742552063542785e+00  7.0721923165216962e+00  7.0700665870242760e+00  7.0678760632795354e+00  7.0656187285017191e+00  7.0632925017027679e+00  7.0608952356313806e+00  7.0584247146484929e+00  7.0558786525376256e+00  7.0532546902484352e+00  7.0505503935718439e+00  7.0477632507451444e+00  7.0448906699854446e+00  7.0419299769498380e+00  7.0388784121206802e+00  7.0357331281144191e+00  7.0324911869123961e+00  7.0291495570121141e+00  7.0257051104974551e+00  7.0221546200264546e+00  7.0184947557351993e+00  7.0147220820566147e+00  7.0108330544527933e+00  7.0068240160598494e+00  7.0026911942441652e+00  6.9984306970691508e+00  6.9940385096717179e+00  6.9895104905478256e+00  6.9848423677466283e+00  6.9800297349729474e+00  6.9750680475979836e+00  6.9699526185784224e+00  6.9646786142843498e+00  6.9592410502366917e+00  6.9536347867551491e+00  6.9478545245180099e+00  6.9418948000355805e+00  6.9357499810393382e+00  6.9294142617894519e+00  6.9228816583037736e+00  6.9161460035118818e+00  6.9092009423384964e+00  6.9020399267210797e+00  6.8946562105672626e+00  6.8870428446583984e+00  6.8791926715064537e+00  6.8710983201723357e+00  6.8627522010546569e+00  6.8541465006591302e+00  6.8452731763598225e+00  6.8361239511647751e+00  6.8266903084998569e+00  6.8169634870261477e+00  6.8069344755077035e+00  6.7965940077482561e+00  6.7859325576172145e+00  6.7749403341872885e+00  6.7636072770081608e+00  6.7519230515428745e+00  6.7398770447961125e+00  6.7274583611660317e+00  6.7146558185542284e+00  6.7014579447713691e+00  6.6878529742792177e+00  6.6738288453132721e+00  6.6593731974338937e+00  6.6444733695577094e+00  6.6291163985253521e+00  6.6132890182659629e+00  6.5969776596237688e+00  6.5801684509170535e+00  6.5628472193052252e+00  6.5449994930454887e+00  6.5266105047266088e+00  6.5076651955737521e+00  6.4881482209251349e+00  6.4680439569883932e+00  6.4473365089921479e+00  6.4260097208561380e+00  6.4040471865116366e+00  6.3814322630125231e+00  6.3581480855864738e+00  6.3341775847851620e+00  6.3095035059020592e+00  6.2841084308365351e+00  6.2579748025932744e+00  6.2310849526164978e+00  6.2034211311692316e+00  6.1749655409785555e+00  6.1457003743784595e+00  6.1156078541925041e+00  6.0846702786086917e+00  6.0528700703086811e+00  6.0201898301225629e+00  5.9866123954884713e+00  5.9521209040031744e+00  5.9166988623550987e+00  5.8803302209345416e+00  5.8429994544166552e+00  5.8046916486107829e+00  5.7653925938640693e+00  5.7250888852973008e+00  5.6837680301361804e+00  5.6414185623802755e+00  5.5980301650242170e+00  5.5535938000100966e+00  5.5081018460450402e+00  5.4615482443625210e+00  5.4139286524385941e+00  5.3652406055932511e+00  5.3154836863109338e+00  5.2646597010011238e+00  5.2127728637881114e+00  5.1598299867665736e+00  5.1058406759850525e+00  5.0508175322206830e+00  4.9947763553846860e+00  4.9377363511477652e+00  4.8797203380972745e+00  4.8207549534337462e+00  4.7608708548841117e+00  4.7001029161549246e+00  4.6384904128742033e+00  4.5760771955806359e+00  4.5129118459208311e+00  4.4490478118185202e+00  4.3845435169963025e+00  4.3194624398757933e+00  4.2538731565738