<?xml version="1.0"?>
<VTKFile type="UnstructuredGrid"  version="0.1"  >
<UnstructuredGrid>
<Piece  NumberOfPoints="1001" NumberOfCells="1000">
<Points>
<DataArray  type="Float64"  NumberOfComponents="3"  format="ascii">0 0 0  0.001 0 0  0.002 0 0  0.003 0 0  0.004 0 0  0.005 0 0  0.006 0 0  0.007 0 0  0.008 0 0  0.008999999999999999 0 0  0.01 0 0  0.011 0 0  0.012 0 0  0.013 0 0  0.014 0 0  0.015 0 0  0.016 0 0  0.017 0 0  0.018 0 0  0.019 0 0  0.02 0 0  0.021 0 0  0.022 0 0  0.023 0 0  0.024 0 0  0.025 0 0  0.026 0 0  0.027 0 0  0.028 0 0  0.029 0 0  0.03 0 0  0.031 0 0  0.032 0 0  0.033 0 0  0.034 0 0  0.035 0 0  0.036 0 0  0.037 0 0  0.038 0 0  0.039 0 0  0.04 0 0  0.041 0 0  0.042 0 0  0.043 0 0  0.044 0 0  0.045 0 0  0.046 0 0  0.047 0 0  0.048 0 0  0.049 0 0  0.05 0 0  0.051 0 0  0.052 0 0  0.053 0 0  0.054 0 0  0.055 0 0  0.056 0 0  0.057 0 0  0.058 0 0  0.059 0 0  0.06 0 0  0.061 0 0  0.062 0 0  0.063 0 0  0.064 0 0  0.065 0 0  0.066 0 0  0.067 0 0  0.068 0 0  0.06900000000000001 0 0  0.07000000000000001 0 0  0.07099999999999999 0 0  0.07199999999999999 0 0  0.073 0 0  0.074 0 0  0.075 0 0  0.076 0 0  0.077 0 0  0.078 0 0  0.079 0 0  0.08 0 0  0.081 0 0  0.082 0 0  0.083 0 0  0.08400000000000001 0 0  0.08500000000000001 0 0  0.08599999999999999 0 0  0.08699999999999999 0 0  0.08799999999999999 0 0  0.089 0 0  0.09 0 0  0.091 0 0  0.092 0 0  0.093 0 0  0.094 0 0  0.095 0 0  0.096 0 0  0.097 0 0  0.098 0 0  0.099 0 0  0.1 0 0  0.101 0 0  0.102 0 0  0.103 0 0  0.104 0 0  0.105 0 0  0.106 0 0  0.107 0 0  0.108 0 0  0.109 0 0  0.11 0 0  0.111 0 0  0.112 0 0  0.113 0 0  0.114 0 0  0.115 0 0  0.116 0 0  0.117 0 0  0.118 0 0  0.119 0 0  0.12 0 0  0.121 0 0  0.122 0 0  0.123 0 0  0.124 0 0  0.125 0 0  0.126 0 0  0.127 0 0  0.128 0 0  0.129 0 0  0.13 0 0  0.131 0 0  0.132 0 0  0.133 0 0  0.134 0 0  0.135 0 0  0.136 0 0  0.137 0 0  0.138 0 0  0.139 0 0  0.14 0 0  0.141 0 0  0.142 0 0  0.143 0 0  0.144 0 0  0.145 0 0  0.146 0 0  0.147 0 0  0.148 0 0  0.149 0 0  0.15 0 0  0.151 0 0  0.152 0 0  0.153 0 0  0.154 0 0  0.155 0 0  0.156 0 0  0.157 0 0  0.158 0 0  0.159 0 0  0.16 0 0  0.161 0 0  0.162 0 0  0.163 0 0  0.164 0 0  0.165 0 0  0.166 0 0  0.167 0 0  0.168 0 0  0.169 0 0  0.17 0 0  0.171 0 0  0.172 0 0  0.173 0 0  0.174 0 0  0.175 0 0  0.176 0 0  0.177 0 0  0.178 0 0  0.179 0 0  0.18 0 0  0.181 0 0  0.182 0 0  0.183 0 0  0.184 0 0  0.185 0 0  0.186 0 0  0.187 0 0  0.188 0 0  0.189 0 0  0.19 0 0  0.191 0 0  0.192 0 0  0.193 0 0  0.194 0 0  0.195 0 0  0.196 0 0  0.197 0 0  0.198 0 0  0.199 0 0  0.2 0 0  0.201 0 0  0.202 0 0  0.203 0 0  0.204 0 0  0.205 0 0  0.206 0 0  0.207 0 0  0.208 0 0  0.209 0 0  0.21 0 0  0.211 0 0  0.212 0 0  0.213 0 0  0.214 0 0  0.215 0 0  0.216 0 0  0.217 0 0  0.218 0 0  0.219 0 0  0.22 0 0  0.221 0 0  0.222 0 0  0.223 0 0  0.224 0 0  0.225 0 0  0.226 0 0  0.227 0 0  0.228 0 0  0.229 0 0  0.23 0 0  0.231 0 0  0.232 0 0  0.233 0 0  0.234 0 0  0.235 0 0  0.236 0 0  0.237 0 0  0.238 0 0  0.239 0 0  0.24 0 0  0.241 0 0  0.242 0 0  0.243 0 0  0.244 0 0  0.245 0 0  0.246 0 0  0.247 0 0  0.248 0 0  0.249 0 0  0.25 0 0  0.251 0 0  0.252 0 0  0.253 0 0  0.254 0 0  0.255 0 0  0.256 0 0  0.257 0 0  0.258 0 0  0.259 0 0  0.26 0 0  0.261 0 0  0.262 0 0  0.263 0 0  0.264 0 0  0.265 0 0  0.266 0 0  0.267 0 0  0.268 0 0  0.269 0 0  0.27 0 0  0.271 0 0  0.272 0 0  0.273 0 0  0.274 0 0  0.275 0 0  0.276 0 0  0.277 0 0  0.278 0 0  0.279 0 0  0.28 0 0  0.281 0 0  0.282 0 0  0.283 0 0  0.284 0 0  0.285 0 0  0.286 0 0  0.287 0 0  0.288 0 0  0.289 0 0  0.29 0 0  0.291 0 0  0.292 0 0  0.293 0 0  0.294 0 0  0.295 0 0  0.296 0 0  0.297 0 0  0.298 0 0  0.299 0 0  0.3 0 0  0.301 0 0  0.302 0 0  0.303 0 0  0.304 0 0  0.305 0 0  0.306 0 0  0.307 0 0  0.308 0 0  0.309 0 0  0.31 0 0  0.311 0 0  0.312 0 0  0.313 0 0  0.314 0 0  0.315 0 0  0.316 0 0  0.317 0 0  0.318 0 0  0.319 0 0  0.32 0 0  0.321 0 0  0.322 0 0  0.323 0 0  0.324 0 0  0.325 0 0  0.326 0 0  0.327 0 0  0.328 0 0  0.329 0 0  0.33 0 0  0.331 0 0  0.332 0 0  0.333 0 0  0.334 0 0  0.335 0 0  0.336 0 0  0.337 0 0  0.338 0 0  0.339 0 0  0.34 0 0  0.341 0 0  0.342 0 0  0.343 0 0  0.344 0 0  0.345 0 0  0.346 0 0  0.347 0 0  0.348 0 0  0.349 0 0  0.35 0 0  0.351 0 0  0.352 0 0  0.353 0 0  0.354 0 0  0.355 0 0  0.356 0 0  0.357 0 0  0.358 0 0  0.359 0 0  0.36 0 0  0.361 0 0  0.362 0 0  0.363 0 0  0.364 0 0  0.365 0 0  0.366 0 0  0.367 0 0  0.368 0 0  0.369 0 0  0.37 0 0  0.371 0 0  0.372 0 0  0.373 0 0  0.374 0 0  0.375 0 0  0.376 0 0  0.377 0 0  0.378 0 0  0.379 0 0  0.38 0 0  0.381 0 0  0.382 0 0  0.383 0 0  0.384 0 0  0.385 0 0  0.386 0 0  0.387 0 0  0.388 0 0  0.389 0 0  0.39 0 0  0.391 0 0  0.392 0 0  0.393 0 0  0.394 0 0  0.395 0 0  0.396 0 0  0.397 0 0  0.398 0 0  0.399 0 0  0.4 0 0  0.401 0 0  0.402 0 0  0.403 0 0  0.404 0 0  0.405 0 0  0.406 0 0  0.407 0 0  0.408 0 0  0.409 0 0  0.41 0 0  0.411 0 0  0.412 0 0  0.413 0 0  0.414 0 0  0.415 0 0  0.416 0 0  0.417 0 0  0.418 0 0  0.419 0 0  0.42 0 0  0.421 0 0  0.422 0 0  0.423 0 0  0.424 0 0  0.425 0 0  0.426 0 0  0.427 0 0  0.428 0 0  0.429 0 0  0.43 0 0  0.431 0 0  0.432 0 0  0.433 0 0  0.434 0 0  0.435 0 0  0.436 0 0  0.437 0 0  0.438 0 0  0.439 0 0  0.44 0 0  0.441 0 0  0.442 0 0  0.443 0 0  0.444 0 0  0.445 0 0  0.446 0 0  0.447 0 0  0.448 0 0  0.449 0 0  0.45 0 0  0.451 0 0  0.452 0 0  0.453 0 0  0.454 0 0  0.455 0 0  0.456 0 0  0.457 0 0  0.458 0 0  0.459 0 0  0.46 0 0  0.461 0 0  0.462 0 0  0.463 0 0  0.464 0 0  0.465 0 0  0.466 0 0  0.467 0 0  0.468 0 0  0.469 0 0  0.47 0 0  0.471 0 0  0.472 0 0  0.473 0 0  0.474 0 0  0.475 0 0  0.476 0 0  0.477 0 0  0.478 0 0  0.479 0 0  0.48 0 0  0.481 0 0  0.482 0 0  0.483 0 0  0.484 0 0  0.485 0 0  0.486 0 0  0.487 0 0  0.488 0 0  0.489 0 0  0.49 0 0  0.491 0 0  0.492 0 0  0.493 0 0  0.494 0 0  0.495 0 0  0.496 0 0  0.497 0 0  0.498 0 0  0.499 0 0  0.5 0 0  0.501 0 0  0.502 0 0  0.503 0 0  0.504 0 0  0.505 0 0  0.506 0 0  0.507 0 0  0.508 0 0  0.509 0 0  0.51 0 0  0.511 0 0  0.512 0 0  0.513 0 0  0.514 0 0  0.515 0 0  0.516 0 0  0.517 0 0  0.518 0 0  0.519 0 0  0.52 0 0  0.521 0 0  0.522 0 0  0.523 0 0  0.524 0 0  0.525 0 0  0.526 0 0  0.527 0 0  0.528 0 0  0.529 0 0  0.53 0 0  0.531 0 0  0.532 0 0  0.533 0 0  0.534 0 0  0.535 0 0  0.536 0 0  0.537 0 0  0.538 0 0  0.539 0 0  0.54 0 0  0.541 0 0  0.542 0 0  0.543 0 0  0.544 0 0  0.545 0 0  0.546 0 0  0.547 0 0  0.548 0 0  0.549 0 0  0.55 0 0  0.551 0 0  0.552 0 0  0.553 0 0  0.554 0 0  0.555 0 0  0.556 0 0  0.5570000000000001 0 0  0.5580000000000001 0 0  0.5590000000000001 0 0  0.5600000000000001 0 0  0.5610000000000001 0 0  0.5620000000000001 0 0  0.5629999999999999 0 0  0.5639999999999999 0 0  0.5649999999999999 0 0  0.5659999999999999 0 0  0.5669999999999999 0 0  0.5679999999999999 0 0  0.569 0 0  0.57 0 0  0.571 0 0  0.572 0 0  0.573 0 0  0.574 0 0  0.575 0 0  0.576 0 0  0.577 0 0  0.578 0 0  0.579 0 0  0.58 0 0  0.581 0 0  0.582 0 0  0.583 0 0  0.584 0 0  0.585 0 0  0.586 0 0  0.587 0 0  0.588 0 0  0.589 0 0  0.59 0 0  0.591 0 0  0.592 0 0  0.593 0 0  0.594 0 0  0.595 0 0  0.596 0 0  0.597 0 0  0.598 0 0  0.599 0 0  0.6 0 0  0.601 0 0  0.602 0 0  0.603 0 0  0.604 0 0  0.605 0 0  0.606 0 0  0.607 0 0  0.608 0 0  0.609 0 0  0.61 0 0  0.611 0 0  0.612 0 0  0.613 0 0  0.614 0 0  0.615 0 0  0.616 0 0  0.617 0 0  0.618 0 0  0.619 0 0  0.62 0 0  0.621 0 0  0.622 0 0  0.623 0 0  0.624 0 0  0.625 0 0  0.626 0 0  0.627 0 0  0.628 0 0  0.629 0 0  0.63 0 0  0.631 0 0  0.632 0 0  0.633 0 0  0.634 0 0  0.635 0 0  0.636 0 0  0.637 0 0  0.638 0 0  0.639 0 0  0.64 0 0  0.641 0 0  0.642 0 0  0.643 0 0  0.644 0 0  0.645 0 0  0.646 0 0  0.647 0 0  0.648 0 0  0.649 0 0  0.65 0 0  0.651 0 0  0.652 0 0  0.653 0 0  0.654 0 0  0.655 0 0  0.656 0 0  0.657 0 0  0.658 0 0  0.659 0 0  0.66 0 0  0.661 0 0  0.662 0 0  0.663 0 0  0.664 0 0  0.665 0 0  0.666 0 0  0.667 0 0  0.668 0 0  0.669 0 0  0.67 0 0  0.671 0 0  0.672 0 0  0.673 0 0  0.674 0 0  0.675 0 0  0.676 0 0  0.677 0 0  0.678 0 0  0.679 0 0  0.68 0 0  0.681 0 0  0.6820000000000001 0 0  0.6830000000000001 0 0  0.6840000000000001 0 0  0.6850000000000001 0 0  0.6860000000000001 0 0  0.6870000000000001 0 0  0.6879999999999999 0 0  0.6889999999999999 0 0  0.6899999999999999 0 0  0.6909999999999999 0 0  0.6919999999999999 0 0  0.6929999999999999 0 0  0.694 0 0  0.695 0 0  0.696 0 0  0.697 0 0  0.698 0 0  0.699 0 0  0.7 0 0  0.701 0 0  0.702 0 0  0.703 0 0  0.704 0 0  0.705 0 0  0.706 0 0  0.707 0 0  0.708 0 0  0.709 0 0  0.71 0 0  0.711 0 0  0.712 0 0  0.713 0 0  0.714 0 0  0.715 0 0  0.716 0 0  0.717 0 0  0.718 0 0  0.719 0 0  0.72 0 0  0.721 0 0  0.722 0 0  0.723 0 0  0.724 0 0  0.725 0 0  0.726 0 0  0.727 0 0  0.728 0 0  0.729 0 0  0.73 0 0  0.731 0 0  0.732 0 0  0.733 0 0  0.734 0 0  0.735 0 0  0.736 0 0  0.737 0 0  0.738 0 0  0.739 0 0  0.74 0 0  0.741 0 0  0.742 0 0  0.743 0 0  0.744 0 0  0.745 0 0  0.746 0 0  0.747 0 0  0.748 0 0  0.749 0 0  0.75 0 0  0.751 0 0  0.752 0 0  0.753 0 0  0.754 0 0  0.755 0 0  0.756 0 0  0.757 0 0  0.758 0 0  0.759 0 0  0.76 0 0  0.761 0 0  0.762 0 0  0.763 0 0  0.764 0 0  0.765 0 0  0.766 0 0  0.767 0 0  0.768 0 0  0.769 0 0  0.77 0 0  0.771 0 0  0.772 0 0  0.773 0 0  0.774 0 0  0.775 0 0  0.776 0 0  0.777 0 0  0.778 0 0  0.779 0 0  0.78 0 0  0.781 0 0  0.782 0 0  0.783 0 0  0.784 0 0  0.785 0 0  0.786 0 0  0.787 0 0  0.788 0 0  0.789 0 0  0.79 0 0  0.791 0 0  0.792 0 0  0.793 0 0  0.794 0 0  0.795 0 0  0.796 0 0  0.797 0 0  0.798 0 0  0.799 0 0  0.8 0 0  0.801 0 0  0.802 0 0  0.803 0 0  0.804 0 0  0.805 0 0  0.806 0 0  0.8070000000000001 0 0  0.8080000000000001 0 0  0.8090000000000001 0 0  0.8100000000000001 0 0  0.8110000000000001 0 0  0.8120000000000001 0 0  0.8129999999999999 0 0  0.8139999999999999 0 0  0.8149999999999999 0 0  0.8159999999999999 0 0  0.8169999999999999 0 0  0.8179999999999999 0 0  0.819 0 0  0.82 0 0  0.821 0 0  0.822 0 0  0.823 0 0  0.824 0 0  0.825 0 0  0.826 0 0  0.827 0 0  0.828 0 0  0.829 0 0  0.83 0 0  0.831 0 0  0.832 0 0  0.833 0 0  0.834 0 0  0.835 0 0  0.836 0 0  0.837 0 0  0.838 0 0  0.839 0 0  0.84 0 0  0.841 0 0  0
[...]
<PointData  Scalars="f_20-0"> 
<DataArray  type="Float64"  Name="f_20-0"  format="ascii">2.0000000191714000e+00  2.0000000193572203e+00  2.0000000199180623e+00  2.0000000208641207e+00  2.0000000222125802e+00  2.0000000239879077e+00  2.0000000262222599e+00  2.0000000289560296e+00  2.0000000322385261e+00  2.0000000361288000e+00  2.0000000406966345e+00  2.0000000460237084e+00  2.0000000522049555e+00  2.0000000593501364e+00  2.0000000675856549e+00  2.0000000770566322e+00  2.0000000879292834e+00  2.0000001003936307e+00  2.0000001146665833e+00  2.0000001309954425e+00  2.0000001496618793e+00  2.0000001709864406e+00  2.0000001953336510e+00  2.0000002231177874e+00  2.0000002548094127e+00  2.0000002909427499e+00  2.0000003321240207e+00  2.0000003790408520e+00  2.0000004324728922e+00  2.0000004933037858e+00  2.0000005625346700e+00  2.0000006412993860e+00  2.0000007308816148e+00  2.0000008327341710e+00  2.0000009485007202e+00  2.0000010800402142e+00  2.0000012294543752e+00  2.0000013991185974e+00  2.0000015917166754e+00  2.0000018102798243e+00  2.0000020582305025e+00  2.0000023394316067e+00  2.0000026582416881e+00  2.0000030195768881e+00  2.0000034289804023e+00  2.0000038927003474e+00  2.0000044177770149e+00  2.0000050121406159e+00  2.0000056847207297e+00  2.0000064455688147e+00  2.0000073059952803e+00  2.0000082787228060e+00  2.0000093780577592e+00  2.0000106200817789e+00  2.0000120228658016e+00  2.0000136067090919e+00  2.0000153944060663e+00  2.0000174115440452e+00  2.0000196868353757e+00  2.0000222524877516e+00  2.0000251446169530e+00  2.0000284037066858e+00  2.0000320751206835e+00  2.0000362096727771e+00  2.0000408642612393e+00  2.0000461025743514e+00  2.0000519958748626e+00  2.0000586238717970e+00  2.0000660756889208e+00  2.0000744509401209e+00  2.0000838609229867e+00  2.0000944299430001e+00  2.0001062967819787e+00  2.0001196163257489e+00  2.0001345613675152e+00  2.0001513246049534e+00  2.0001701208508216e+00  2.0001911894787643e+00  2.0002147971280348e+00  2.0002412406930947e+00  2.0002708506264679e+00  2.0003039945858485e+00  2.0003410814592768e+00  2.0003825658052747e+00  2.0004289527481274e+00  2.0004808033720347e+00  2.0005387406616930e+00  2.0006034560409525e+00  2.0006757165655924e+00  2.0007563728309385e+00  2.0008463676600496e+00  2.0009467456435086e+00  2.0010586636075076e+00  2.0011834020928325e+00  2.0013223779336715e+00  2.0014771580316881e+00  2.0016494744276949e+00  2.0018412407803563e+00  2.0020545703686770e+00  2.0022917957425417e+00  2.0025554901531457e+00  2.0028484909027937e+00  2.0031739247610347e+00  2.0035352356014031e+00  2.0039362144199213e+00  2.0043810319028275e+00  2.0048742737164522e+00  2.0054209786964994e+00  2.0060266801168689e+00  2.0066974502191188e+00  2.0074399481823035e+00  2.0082614717085909e+00  2.0091700123921945e+00  2.0101743150268985e+00  2.0112839409900145e+00  2.0125093358169748e+00  2.0138619010497840e+00  2.0153540704030197e+00  2.0169993902415526e+00  2.0188126043031072e+00  2.0208097425245950e+00  2.0230082137419521e+00  2.0254269019271942e+00  2.0280862655016128e+00  2.0310084391185681e+00  2.0342173371413375e+00  2.0377387578494104e+00  2.0416004871890459e+00  2.0458324006402195e+00  2.0504665615020881e+00  2.0555373136037844e+00  2.0610813661289029e+00  2.0671378679042500e+00  2.0737484681521083e+00  2.0809573603485543e+00  2.0888113054791919e+00  2.0973596306519826e+00  2.1066541987321372e+00  2.1167493444270615e+00  2.1277017720945559e+00  2.1395704105023294e+00  2.1524162198612897e+00  2.1663019467204747e+00  2.1812918227788081e+00  2.1974512043670926e+00  2.2148461503064576e+00  2.2335429370727948e+00  2.2536075116949914e+00  2.2751048845776278e+00  2.2980984664380264e+00  2.3226493557344048e+00  2.3488155852659993e+00  2.3766513389555333e+00  2.4062061520684077e+00  2.4375241101560308e+00  2.4706430636998147e+00  2.5055938766460799e+00  2.5423997276408432e+00  2.5810754827009039e+00  2.6216271572309298e+00  2.6640514836952192e+00  2.7083355989052338e+00  2.7544568618676872e+00  2.8023828095776380e+00  2.8520712542010229e+00  2.9034705209636975e+00  2.9565198219554549e+00  3.0111497571716535e+00  3.0672829306386382e+00  3.1248346665577738e+00  3.1837138081713450e+00  3.2438235805695133e+00  3.3050624979403751e+00  3.3673252957885680e+00  3.4305038693461816e+00  3.4944882006769844e+00  3.5591672587144481e+00  3.6244298585493606e+00  3.6901654685668555e+00  3.7562649564058250e+00  3.8226212670700663e+00  3.8891300287716573e+00  3.9556900841643383e+00  4.0222039464790216e+00  4.0885781816749347e+00  4.1547237190546529e+00  4.2205560938598765e+00  4.2859956261785177e+00  4.3509675410719879e+00  4.4154020351992349e+00  4.4792342953987712e+00  4.5424044747205805e+00  4.6048576313044958e+00  4.6665436353073098e+00  4.7274170488117129e+00  4.7874369833277814e+00  4.8465669391407777e+00  4.9047746303830309e+00  4.9620317993254481e+00  5.0183140230058081e+00  5.0736005149443280e+00  5.1278739243477087e+00  5.1811201348749645e+00  5.2333280647344482e+00  5.2844894696029030e+00  5.3345987496045879e+00  5.3836527613612706e+00  5.4316506359213390e+00  5.4785936031972318e+00  5.5244848233834594e+00  5.5693292256909173e+00  5.6131333546155577e+00  5.6559052238586363e+00  5.6976541779305974e+00  5.7383907613989811e+00  5.7781265956814574e+00  5.8168742632365262e+00  5.8546471989653384e+00  5.8914595886072636e+00  5.9273262738881209e+00  5.9622626641625107e+00  5.9962846542793296e+00  6.0294085483918405e+00  6.0616509894295794e+00  6.0930288939485653e+00  6.1235593920779330e+00  6.1532597722850921e+00  6.1821474306870412e+00  6.2102398246424899e+00  6.2375544303674921e+00  6.2641087043261692e+00  6.2899200481575326e+00  6.3150057769093202e+00  6.3393830903598536e+00  6.3630690472191018e+00  6.3860805420104416e+00  6.4084342844446907e+00  6.4301467811079567e+00  6.4512343192946888e+00  6.4717129528267403e+00  6.4915984897085144e+00  6.5109064814771340e+00  6.5296522141151119e+00  6.5478507004012059e+00  6.5655166735829615e+00  6.5826645822619270e+00  6.5993085863896006e+00  6.6154625542789498e+00  6.6311400605427115e+00  6.6463543848757389e+00  6.6611185116043865e+00  6.6754451299312922e+00  6.6893466348090271e+00  6.7028351283808369e+00  6.7159224219312081e+00  6.7286200382931911e+00  6.7409392146634177e+00  6.7528909057793776e+00  6.7644857874170867e+00  6.7757342601704407e+00  6.7866464534766378e+00  6.7972322298548775e+00  6.8075011893281605e+00  6.8174626740005300e+00  6.8271257727643411e+00  6.8364993261143230e+00  6.8455919310471831e+00  6.8544119460273150e+00  6.8629674960009677e+00  6.8712664774427461e+00  6.8793165634198603e+00  6.8871252086608736e+00  6.8946996546169892e+00  6.9020469345051012e+00  6.9091738783228918e+00  6.9160871178273151e+00  6.9227930914686810e+00  6.9292980492734477e+00  6.9356080576696337e+00  6.9417290042494253e+00  6.9476666024643228e+00  6.9534263962486760e+00  6.9590137645681258e+00  6.9644339258899164e+00  6.9696919425725534e+00  6.9747927251727226e+00  6.9797410366677326e+00  6.9845414965921826e+00  6.9891985850878298e+00  6.9937166468659440e+00  6.9980998950817295e+00  7.0023524151206136e+00  7.0064781682964483e+00  7.0104809954618474e+00  7.0143646205311025e+00  7.0181326539162230e+00  7.0217885958768589e+00  7.0253358397849350e+00  7.0287776753049869e+00  7.0321172914912395e+00  7.0353577798026210e+00  7.0385021370369074e+00  7.0415532681853339e+00  7.0445139892089959e+00  7.0473870297384789e+00  7.0501750356981399e+00  7.0528805718565115e+00  7.0555061243043689e+00  7.0580541028619326e+00  7.0605268434167821e+00  7.0629266101940127e+00  7.0652555979601805e+00  7.0675159341626062e+00  7.0697096810055591e+00  7.0718388374648899e+00  7.0739053412426234e+00  7.0759110706630306e+00  7.0778578465117166e+00  7.0797474338191675e+00  7.0815815435902483e+00  7.0833618344811073e+00  7.0850899144249038e+00  7.0867673422077653e+00  7.0883956289963503e+00  7.0899762398183901e+00  7.0915105949975157e+00  7.0930000715436856e+00  7.0944460045005000e+00  7.0958496882506301e+00  7.0972123777806031e+00  7.0985352899061382e+00  7.0998196044591833e+00  7.1010664654378051e+00  7.1022769821200606e+00  7.1034522301428877e+00  7.1045932525471329e+00  7.1057010607896993e+00  7.1067766357238282e+00  7.1078209285485228e+00  7.1088348617280097e+00  7.1098193298822219e+00  7.1107752006491527e+00  7.1117033155199927e+00  7.1126044906478674e+00  7.1134795176310366e+00  7.1143291642713207e+00  7.1151541753085628e+00  7.1159552731318705e+00  7.1167331584683575e+00  7.1174885110501318e+00  7.1182219902601789e+00  7.1189342357578536e+00  7.1196258680845883e+00  7.1202974892504809e+00  7.1209496833023556e+00  7.1215830168738972e+00  7.1221980397184179e+00  7.1227952852248357e+00  7.1233752709173901e+00  7.1239384989396033e+00  7.1244854565230273e+00  7.1250166164412265e+00  7.1255324374495066e+00  7.1260333647108176e+00  7.1265198302082933e+00  7.1269922531448566e+00  7.1274510403303051e+00  7.1278965865562691e+00  7.1283292749594516e+00  7.1287494773735203e+00  7.1291575546700026e+00  7.1295538570885615e+00  7.1299387245569887e+00  7.1303124870012189e+00  7.1306754646457300e+00  7.1310279683046076e+00  7.1313702996635806e+00  7.1317027515533322e+00  7.1320256082143425e+00  7.1323391455535550e+00  7.1326436313931172e+00  7.1329393257114742e+00  7.1332264808770098e+00  7.1335053418745371e+00  7.1337761465248146e+00  7.1340391256973472e+00  7.1342945035166698e+00  7.1345424975623182e+00  7.1347833190627155e+00  7.1350171730831171e+00  7.1352442587078757e+00  7.1354647692171342e+00  7.1356788922581815e+00  7.1358868100115993e+00  7.1360886993523982e+00  7.1362847320062803e+00  7.1364750747011891e+00  7.1366598893143003e+00  7.1368393330145992e+00  7.1370135584011676e+00  7.1371827136373414e+00  7.1373469425808498e+00  7.1375063849100586e+00  7.1376611762464774e+00  7.1378114482735873e+00  7.1379573288521616e+00  7.1380989421321512e+00  7.1382364086612746e+00  7.1383698454903692e+00  7.1384993662756635e+00  7.1386250813780068e+00  7.1387470979592029e+00  7.1388655200755018e+00  7.1389804487683453e+00  7.1390919821524763e+00  7.1392002155014440e+00  7.1393052413306393e+00  7.1394071494778935e+00  7.1395060271817421e+00  7.1396019591574174e+00  7.1396950276706237e+00  7.1397853126091855e+00  7.1398728915526286e+00  7.1399578398397328e+00  7.1400402306341464e+00  7.1401201349881092e+00  7.1401976219043277e+00  7.1402727583960628e+00  7.1403456095454985e+00  7.1404162385603991e+00  7.1404847068291488e+00  7.1405510739741667e+00  7.1406153979037867e+00  7.1406777348626056e+00  7.1407381394803497e+00  7.1407966648192938e+00  7.1408533624202555e+00  7.1409082823472136e+00  7.1409614732305542e+00  7.1410129823089719e+00  7.1410628554700848e+00  7.1411111372897320e+00  7.1411578710699981e+00  7.1412030988760069e+00  7.1412468615714406e+00  7.1412891988528688e+00  7.1413301492828465e+00  7.1413697503218332e+00  7.1414080383589127e+00  7.1414450487413630e+00  7.1414808158030585e+00  7.1415153728917335e+00  7.1415487523951233e+00  7.1415809857659829e+00  7.1416121035460138e+00  7.1416421353887047e+00  7.1416711100811181e+00  7.1416990555646152e+00  7.1417259989545769e+00  7.1417519665591049e+00  7.1417769838967446e+00  7.1418010757132748e+00  7.1418242659975437e+00  7.1418465779964091e+00  7.1418680342288283e+00  7.1418886564990780e+00  7.1419084659091858e+00  7.1419274828705666e+00  7.1419457271149307e+00  7.1419632177044692e+00  7.1419799730413587e+00  7.1419960108766345e+00  7.1420113483184284e+00  7.1420260018396577e+00  7.1420399872851412e+00  7.1420533198782179e+00  7.1420660142268702e+00  7.1420780843294018e+00  7.1420895435796874e+00  7.1421004047720249e+00  7.1421106801056142e+00  7.1421203811886915e+00  7.1421295190423386e+00  7.1421381041039895e+00  7.1421461462306564e+00  7.1421536547018860e+00  7.1421606382224807e+00  7.1421671049249751e+00  7.1421730623719020e+00  7.1421785175578600e+00  7.1421834769113719e+00  7.1421879462965805e+00  7.1421919310147555e+00  7.1421954358056388e+00  7.1421984648486365e+00  7.1422010217638494e+00  7.1422031096129635e+00  7.1422047308999916e+00  7.1422058875718761e+00  7.1422065810189643e+00  7.1422068120753259e+00  7.1422065810189643e+00  7.1422058875718761e+00  7.1422047308999916e+00  7.1422031096129635e+00  7.1422010217638494e+00  7.1421984648486365e+00  7.1421954358056388e+00  7.1421919310147555e+00  7.1421879462965805e+00  7.1421834769113719e+00  7.1421785175578600e+00  7.1421730623719020e+00  7.1421671049249751e+00  7.1421606382224807e+00  7.1421536547018860e+00  7.1421461462306564e+00  7.1421381041039895e+00  7.1421295190423386e+00  7.1421203811886915e+00  7.1421106801056142e+00  7.1421004047720249e+00  7.1420895435796874e+00  7.1420780843294018e+00  7.1420660142268702e+00  7.1420533198782179e+00  7.1420399872851421e+00  7.1420260018396577e+00  7.1420113483184275e+00  7.1419960108766345e+00  7.1419799730413587e+00  7.1419632177044683e+00  7.1419457271149307e+00  7.1419274828705666e+00  7.1419084659091858e+00  7.1418886564990780e+00  7.1418680342288283e+00  7.1418465779964091e+00  7.1418242659975437e+00  7.1418010757132748e+00  7.1417769838967446e+00  7.1417519665591049e+00  7.1417259989545769e+00  7.1416990555646160e+00  7.1416711100811172e+00  7.1416421353887030e+00  7.1416121035460103e+00  7.1415809857659811e+00  7.1415487523951233e+00  7.1415153728917327e+00  7.1414808158030576e+00  7.1414450487413630e+00  7.1414080383589118e+00  7.1413697503218332e+00  7.1413301492828465e+00  7.1412891988528679e+00  7.1412468615714406e+00  7.1412030988760069e+00  7.1411578710699981e+00  7.1411111372897320e+00  7.1410628554700848e+00  7.1410129823089719e+00  7.1409614732305542e+00  7.1409082823472136e+00  7.1408533624202546e+00  7.1407966648192929e+00  7.1407381394803497e+00  7.1406777348626065e+00  7.1406153979037867e+00  7.1405510739741667e+00  7.1404847068291497e+00  7.1404162385604000e+00  7.1403456095454994e+00  7.1402727583960646e+00  7.1401976219043286e+00  7.1401201349881100e+00  7.1400402306341455e+00  7.1399578398397310e+00  7.1398728915526286e+00  7.1397853126091855e+00  7.1396950276706237e+00  7.1396019591574174e+00  7.1395060271817430e+00  7.1394071494778926e+00  7.1393052413306393e+00  7.1392002155014458e+00  7.1390919821524790e+00  7.1389804487683470e+00  7.1388655200755009e+00  7.1387470979592038e+00  7.1386250813780077e+00  7.1384993662756635e+00  7.1383698454903692e+00  7.1382364086612746e+00  7.1380989421321512e+00  7.1379573288521616e+00  7.1378114482735882e+00  7.1376611762464792e+00  7.1375063849100604e+00  7.1373469425808498e+00  7.1371827136373422e+00  7.1370135584011685e+00  7.1368393330145992e+00  7.1366598893142994e+00  7.1364750747011882e+00  7.1362847320062786e+00  7.1360886993523964e+00  7.1358868100115966e+00  7.1356788922581789e+00  7.1354647692171316e+00  7.1352442587078757e+00  7.1350171730831171e+00  7.1347833190627155e+00  7.1345424975623191e+00  7.1342945035166681e+00  7.1340391256973463e+00  7.1337761465248137e+00  7.1335053418745371e+00  7.1332264808770098e+00  7.1329393257114742e+00  7.1326436313931172e+00  7.1323391455535550e+00  7.1320256082143425e+00  7.1317027515533322e+00  7.1313702996635806e+00  7.1310279683046076e+00  7.1306754646457300e+00  7.1303124870012189e+00  7.1299387245569887e+00  7.1295538570885615e+00  7.1291575546700026e+00  7.1287494773735203e+00  7.1283292749594516e+00  7.1278965865562691e+00  7.1274510403303051e+00  7.1269922531448566e+00  7.1265198302082933e+00  7.1260333647108176e+00  7.1255324374495066e+00  7.1250166164412265e+00  7.1244854565230264e+00  7.1239384989396033e+00  7.1233752709173901e+00  7.1227952852248357e+00  7.1221980397184188e+00  7.1215830168738981e+00  7.1209496833023564e+00  7.1202974892504809e+00  7.1196258680845892e+00  7.1189342357578562e+00  7.1182219902601807e+00  7.1174885110501327e+00  7.1167331584683593e+00  7.1159552731318723e+00  7.1151541753085628e+00  7.1143291642713207e+00  7.1134795176310366e+00  7.1126044906478674e+00  7.1117033155199927e+00  7.1107752006491527e+00  7.1098193298822219e+00  7.1088348617280097e+00  7.1078209285485219e+00  7.1067766357238282e+00  7.1057010607896993e+00  7.1045932525471347e+00  7.1034522301428886e+00  7.1022769821200624e+00  7.1010664654378068e+00  7.0998196044591850e+00  7.0985352899061391e+00  7.0972123777806031e+00  7.0958496882506301e+00  7.0944460045005000e+00  7.0930000715436856e+00  7.0915105949975157e+00  7.0899762398183901e+00  7.0883956289963503e+00  7.0867673422077653e+00  7.0850899144249038e+00  7.0833618344811073e+00  7.0815815435902483e+00  7.0797474338191675e+00  7.0778578465117166e+00  7.0759110706630306e+00  7.0739053412426234e+00  7.0718388374648899e+00  7.0697096810055582e+00  7.0675159341626062e+00  7.0652555979601805e+00  7.0629266101940127e+00  7.0605268434167821e+00  7.0580541028619326e+00  7.0555061243043697e+00  7.0528805718565124e+00  7.0501750356981399e+00  7.0473870297384789e+00  7.0445139892089959e+00  7.0415532681853339e+00  7.0385021370369074e+00  7.0353577798026201e+00  7.0321172914912378e+00  7.0287776753049851e+00  7.0253358397849350e+00  7.0217885958768580e+00  7.0181326539162239e+00  7.0143646205311025e+00  7.0104809954618474e+00  7.0064781682964483e+00  7.0023524151206136e+00  6.9980998950817295e+00  6.9937166468659440e+00  6.9891985850878298e+00  6.9845414965921826e+00  6.9797410366677326e+00  6.9747927251727226e+00  6.9696919425725534e+00  6.9644339258899164e+00  6.9590137645681276e+00  6.9534263962486786e+00  6.9476666024643263e+00  6.9417290042494280e+00  6.9356080576696346e+00  6.9292980492734495e+00  6.9227930914686810e+00  6.9160871178273169e+00  6.9091738783228926e+00  6.9020469345051021e+00  6.8946996546169910e+00  6.8871252086608772e+00  6.8793165634198639e+00  6.8712664774427497e+00  6.8629674960009703e+00  6.8544119460273167e+00  6.8455919310471840e+00  6.8364993261143248e+00  6.8271257727643420e+00  6.8174626740005309e+00  6.8075011893281623e+00  6.7972322298548784e+00  6.7866464534766395e+00  6.7757342601704407e+00  6.7644857874170876e+00  6.7528909057793784e+00  6.7409392146634195e+00  6.7286200382931938e+00  6.7159224219312099e+00  6.7028351283808387e+00  6.6893466348090289e+00  6.6754451299312922e+00  6.6611185116043874e+00  6.6463543848757398e+00  6.6311400605427115e+00  6.6154625542789498e+00  6.5993085863896006e+00  6.5826645822619270e+00  6.5655166735829615e+00  6.5478507004012059e+00  6.5296522141151128e+00  6.5109064814771358e+00  6.4915984897085144e+00  6.4717129528267403e+00  6.4512343192946897e+00  6.4301467811079585e+00  6.4084342844446924e+00  6.3860805420104434e+00  6.3630690472191018e+00  6.3393830903598545e+00  6.3150057769093229e+00  6.2899200481575344e+00  6.2641087043261718e+00  6.2375544303674930e+00  6.2102398246424917e+00  6.1821474306870430e+00  6.1532597722850939e+00  6.1235593920779348e+00  6.0930288939485662e+00  6.0616509894295794e+00  6.0294085483918396e+00  5.9962846542793296e+00  5.9622626641625116e+00  5.9273262738881227e+00  5.8914595886072645e+00  5.8546471989653419e+00  5.8168742632365280e+00  5.7781265956814591e+00  5.7383907613989820e+00  5.6976541779305974e+00  5.6559052238586380e+00  5.6131333546155586e+00  5.5693292256909182e+00  5.5244848233834603e+00  5.4785936031972318e+00  5.4316506359213390e+00  5.3836527613612715e+00  5.3345987496045897e+00  5.2844894696029066e+00  5.2333280647344509e+00  5.1811201348749654e+00  5.1278739243477096e+00  5.0736005149443297e+00  5.0183140230058099e+00  4.9620317993254508e+00  4.9047746303830326e+00  4.8465669391407777e+00  4.7874369833277832e+00  4.7274170488117120e+00  4.6665436353073080e+00  4.6048576313044949e+00  4.5424044747205805e+00  4.4792342953987712e+00  4.4154020351992340e+00  4.3509675410719870e+00  4.2859956261785248e+00  4.2205560938598845e+00  4.1547237190546600e+00  4.0885781816749409e+00  4.0222039464790296e+00  3.9556900841643468e+00  3.8891300287716657e+00  3.8226212670700743e+00  3.7562649564058326e+00  3.6901654685668617e+00  3.6244298585493673e+00  3.5591672587144552e+00  3.4944882006769915e+00  3.4305038693461882e+00  3.3673252957885746e+00  3.3050624979403822e+00  3.2438235805695