<?xml version="1.0"?>
<VTKFile type="UnstructuredGrid"  version="0.1"  >
<UnstructuredGrid>
<Piece  NumberOfPoints="1001" NumberOfCells="1000">
<Points>
<DataArray  type="Float64"  NumberOfComponents="3"  format="ascii">0 0 0  0.001 0 0  0.002 0 0  0.003 0 0  0.004 0 0  0.005 0 0  0.006 0 0  0.007 0 0  0.008 0 0  0.008999999999999999 0 0  0.01 0 0  0.011 0 0  0.012 0 0  0.013 0 0  0.014 0 0  0.015 0 0  0.016 0 0  0.017 0 0  0.018 0 0  0.019 0 0  0.02 0 0  0.021 0 0  0.022 0 0  0.023 0 0  0.024 0 0  0.025 0 0  0.026 0 0  0.027 0 0  0.028 0 0  0.029 0 0  0.03 0 0  0.031 0 0  0.032 0 0  0.033 0 0  0.034 0 0  0.035 0 0  0.036 0 0  0.037 0 0  0.038 0 0  0.039 0 0  0.04 0 0  0.041 0 0  0.042 0 0  0.043 0 0  0.044 0 0  0.045 0 0  0.046 0 0  0.047 0 0  0.048 0 0  0.049 0 0  0.05 0 0  0.051 0 0  0.052 0 0  0.053 0 0  0.054 0 0  0.055 0 0  0.056 0 0  0.057 0 0  0.058 0 0  0.059 0 0  0.06 0 0  0.061 0 0  0.062 0 0  0.063 0 0  0.064 0 0  0.065 0 0  0.066 0 0  0.067 0 0  0.068 0 0  0.06900000000000001 0 0  0.07000000000000001 0 0  0.07099999999999999 0 0  0.07199999999999999 0 0  0.073 0 0  0.074 0 0  0.075 0 0  0.076 0 0  0.077 0 0  0.078 0 0  0.079 0 0  0.08 0 0  0.081 0 0  0.082 0 0  0.083 0 0  0.08400000000000001 0 0  0.08500000000000001 0 0  0.08599999999999999 0 0  0.08699999999999999 0 0  0.08799999999999999 0 0  0.089 0 0  0.09 0 0  0.091 0 0  0.092 0 0  0.093 0 0  0.094 0 0  0.095 0 0  0.096 0 0  0.097 0 0  0.098 0 0  0.099 0 0  0.1 0 0  0.101 0 0  0.102 0 0  0.103 0 0  0.104 0 0  0.105 0 0  0.106 0 0  0.107 0 0  0.108 0 0  0.109 0 0  0.11 0 0  0.111 0 0  0.112 0 0  0.113 0 0  0.114 0 0  0.115 0 0  0.116 0 0  0.117 0 0  0.118 0 0  0.119 0 0  0.12 0 0  0.121 0 0  0.122 0 0  0.123 0 0  0.124 0 0  0.125 0 0  0.126 0 0  0.127 0 0  0.128 0 0  0.129 0 0  0.13 0 0  0.131 0 0  0.132 0 0  0.133 0 0  0.134 0 0  0.135 0 0  0.136 0 0  0.137 0 0  0.138 0 0  0.139 0 0  0.14 0 0  0.141 0 0  0.142 0 0  0.143 0 0  0.144 0 0  0.145 0 0  0.146 0 0  0.147 0 0  0.148 0 0  0.149 0 0  0.15 0 0  0.151 0 0  0.152 0 0  0.153 0 0  0.154 0 0  0.155 0 0  0.156 0 0  0.157 0 0  0.158 0 0  0.159 0 0  0.16 0 0  0.161 0 0  0.162 0 0  0.163 0 0  0.164 0 0  0.165 0 0  0.166 0 0  0.167 0 0  0.168 0 0  0.169 0 0  0.17 0 0  0.171 0 0  0.172 0 0  0.173 0 0  0.174 0 0  0.175 0 0  0.176 0 0  0.177 0 0  0.178 0 0  0.179 0 0  0.18 0 0  0.181 0 0  0.182 0 0  0.183 0 0  0.184 0 0  0.185 0 0  0.186 0 0  0.187 0 0  0.188 0 0  0.189 0 0  0.19 0 0  0.191 0 0  0.192 0 0  0.193 0 0  0.194 0 0  0.195 0 0  0.196 0 0  0.197 0 0  0.198 0 0  0.199 0 0  0.2 0 0  0.201 0 0  0.202 0 0  0.203 0 0  0.204 0 0  0.205 0 0  0.206 0 0  0.207 0 0  0.208 0 0  0.209 0 0  0.21 0 0  0.211 0 0  0.212 0 0  0.213 0 0  0.214 0 0  0.215 0 0  0.216 0 0  0.217 0 0  0.218 0 0  0.219 0 0  0.22 0 0  0.221 0 0  0.222 0 0  0.223 0 0  0.224 0 0  0.225 0 0  0.226 0 0  0.227 0 0  0.228 0 0  0.229 0 0  0.23 0 0  0.231 0 0  0.232 0 0  0.233 0 0  0.234 0 0  0.235 0 0  0.236 0 0  0.237 0 0  0.238 0 0  0.239 0 0  0.24 0 0  0.241 0 0  0.242 0 0  0.243 0 0  0.244 0 0  0.245 0 0  0.246 0 0  0.247 0 0  0.248 0 0  0.249 0 0  0.25 0 0  0.251 0 0  0.252 0 0  0.253 0 0  0.254 0 0  0.255 0 0  0.256 0 0  0.257 0 0  0.258 0 0  0.259 0 0  0.26 0 0  0.261 0 0  0.262 0 0  0.263 0 0  0.264 0 0  0.265 0 0  0.266 0 0  0.267 0 0  0.268 0 0  0.269 0 0  0.27 0 0  0.271 0 0  0.272 0 0  0.273 0 0  0.274 0 0  0.275 0 0  0.276 0 0  0.277 0 0  0.278 0 0  0.279 0 0  0.28 0 0  0.281 0 0  0.282 0 0  0.283 0 0  0.284 0 0  0.285 0 0  0.286 0 0  0.287 0 0  0.288 0 0  0.289 0 0  0.29 0 0  0.291 0 0  0.292 0 0  0.293 0 0  0.294 0 0  0.295 0 0  0.296 0 0  0.297 0 0  0.298 0 0  0.299 0 0  0.3 0 0  0.301 0 0  0.302 0 0  0.303 0 0  0.304 0 0  0.305 0 0  0.306 0 0  0.307 0 0  0.308 0 0  0.309 0 0  0.31 0 0  0.311 0 0  0.312 0 0  0.313 0 0  0.314 0 0  0.315 0 0  0.316 0 0  0.317 0 0  0.318 0 0  0.319 0 0  0.32 0 0  0.321 0 0  0.322 0 0  0.323 0 0  0.324 0 0  0.325 0 0  0.326 0 0  0.327 0 0  0.328 0 0  0.329 0 0  0.33 0 0  0.331 0 0  0.332 0 0  0.333 0 0  0.334 0 0  0.335 0 0  0.336 0 0  0.337 0 0  0.338 0 0  0.339 0 0  0.34 0 0  0.341 0 0  0.342 0 0  0.343 0 0  0.344 0 0  0.345 0 0  0.346 0 0  0.347 0 0  0.348 0 0  0.349 0 0  0.35 0 0  0.351 0 0  0.352 0 0  0.353 0 0  0.354 0 0  0.355 0 0  0.356 0 0  0.357 0 0  0.358 0 0  0.359 0 0  0.36 0 0  0.361 0 0  0.362 0 0  0.363 0 0  0.364 0 0  0.365 0 0  0.366 0 0  0.367 0 0  0.368 0 0  0.369 0 0  0.37 0 0  0.371 0 0  0.372 0 0  0.373 0 0  0.374 0 0  0.375 0 0  0.376 0 0  0.377 0 0  0.378 0 0  0.379 0 0  0.38 0 0  0.381 0 0  0.382 0 0  0.383 0 0  0.384 0 0  0.385 0 0  0.386 0 0  0.387 0 0  0.388 0 0  0.389 0 0  0.39 0 0  0.391 0 0  0.392 0 0  0.393 0 0  0.394 0 0  0.395 0 0  0.396 0 0  0.397 0 0  0.398 0 0  0.399 0 0  0.4 0 0  0.401 0 0  0.402 0 0  0.403 0 0  0.404 0 0  0.405 0 0  0.406 0 0  0.407 0 0  0.408 0 0  0.409 0 0  0.41 0 0  0.411 0 0  0.412 0 0  0.413 0 0  0.414 0 0  0.415 0 0  0.416 0 0  0.417 0 0  0.418 0 0  0.419 0 0  0.42 0 0  0.421 0 0  0.422 0 0  0.423 0 0  0.424 0 0  0.425 0 0  0.426 0 0  0.427 0 0  0.428 0 0  0.429 0 0  0.43 0 0  0.431 0 0  0.432 0 0  0.433 0 0  0.434 0 0  0.435 0 0  0.436 0 0  0.437 0 0  0.438 0 0  0.439 0 0  0.44 0 0  0.441 0 0  0.442 0 0  0.443 0 0  0.444 0 0  0.445 0 0  0.446 0 0  0.447 0 0  0.448 0 0  0.449 0 0  0.45 0 0  0.451 0 0  0.452 0 0  0.453 0 0  0.454 0 0  0.455 0 0  0.456 0 0  0.457 0 0  0.458 0 0  0.459 0 0  0.46 0 0  0.461 0 0  0.462 0 0  0.463 0 0  0.464 0 0  0.465 0 0  0.466 0 0  0.467 0 0  0.468 0 0  0.469 0 0  0.47 0 0  0.471 0 0  0.472 0 0  0.473 0 0  0.474 0 0  0.475 0 0  0.476 0 0  0.477 0 0  0.478 0 0  0.479 0 0  0.48 0 0  0.481 0 0  0.482 0 0  0.483 0 0  0.484 0 0  0.485 0 0  0.486 0 0  0.487 0 0  0.488 0 0  0.489 0 0  0.49 0 0  0.491 0 0  0.492 0 0  0.493 0 0  0.494 0 0  0.495 0 0  0.496 0 0  0.497 0 0  0.498 0 0  0.499 0 0  0.5 0 0  0.501 0 0  0.502 0 0  0.503 0 0  0.504 0 0  0.505 0 0  0.506 0 0  0.507 0 0  0.508 0 0  0.509 0 0  0.51 0 0  0.511 0 0  0.512 0 0  0.513 0 0  0.514 0 0  0.515 0 0  0.516 0 0  0.517 0 0  0.518 0 0  0.519 0 0  0.52 0 0  0.521 0 0  0.522 0 0  0.523 0 0  0.524 0 0  0.525 0 0  0.526 0 0  0.527 0 0  0.528 0 0  0.529 0 0  0.53 0 0  0.531 0 0  0.532 0 0  0.533 0 0  0.534 0 0  0.535 0 0  0.536 0 0  0.537 0 0  0.538 0 0  0.539 0 0  0.54 0 0  0.541 0 0  0.542 0 0  0.543 0 0  0.544 0 0  0.545 0 0  0.546 0 0  0.547 0 0  0.548 0 0  0.549 0 0  0.55 0 0  0.551 0 0  0.552 0 0  0.553 0 0  0.554 0 0  0.555 0 0  0.556 0 0  0.5570000000000001 0 0  0.5580000000000001 0 0  0.5590000000000001 0 0  0.5600000000000001 0 0  0.5610000000000001 0 0  0.5620000000000001 0 0  0.5629999999999999 0 0  0.5639999999999999 0 0  0.5649999999999999 0 0  0.5659999999999999 0 0  0.5669999999999999 0 0  0.5679999999999999 0 0  0.569 0 0  0.57 0 0  0.571 0 0  0.572 0 0  0.573 0 0  0.574 0 0  0.575 0 0  0.576 0 0  0.577 0 0  0.578 0 0  0.579 0 0  0.58 0 0  0.581 0 0  0.582 0 0  0.583 0 0  0.584 0 0  0.585 0 0  0.586 0 0  0.587 0 0  0.588 0 0  0.589 0 0  0.59 0 0  0.591 0 0  0.592 0 0  0.593 0 0  0.594 0 0  0.595 0 0  0.596 0 0  0.597 0 0  0.598 0 0  0.599 0 0  0.6 0 0  0.601 0 0  0.602 0 0  0.603 0 0  0.604 0 0  0.605 0 0  0.606 0 0  0.607 0 0  0.608 0 0  0.609 0 0  0.61 0 0  0.611 0 0  0.612 0 0  0.613 0 0  0.614 0 0  0.615 0 0  0.616 0 0  0.617 0 0  0.618 0 0  0.619 0 0  0.62 0 0  0.621 0 0  0.622 0 0  0.623 0 0  0.624 0 0  0.625 0 0  0.626 0 0  0.627 0 0  0.628 0 0  0.629 0 0  0.63 0 0  0.631 0 0  0.632 0 0  0.633 0 0  0.634 0 0  0.635 0 0  0.636 0 0  0.637 0 0  0.638 0 0  0.639 0 0  0.64 0 0  0.641 0 0  0.642 0 0  0.643 0 0  0.644 0 0  0.645 0 0  0.646 0 0  0.647 0 0  0.648 0 0  0.649 0 0  0.65 0 0  0.651 0 0  0.652 0 0  0.653 0 0  0.654 0 0  0.655 0 0  0.656 0 0  0.657 0 0  0.658 0 0  0.659 0 0  0.66 0 0  0.661 0 0  0.662 0 0  0.663 0 0  0.664 0 0  0.665 0 0  0.666 0 0  0.667 0 0  0.668 0 0  0.669 0 0  0.67 0 0  0.671 0 0  0.672 0 0  0.673 0 0  0.674 0 0  0.675 0 0  0.676 0 0  0.677 0 0  0.678 0 0  0.679 0 0  0.68 0 0  0.681 0 0  0.6820000000000001 0 0  0.6830000000000001 0 0  0.6840000000000001 0 0  0.6850000000000001 0 0  0.6860000000000001 0 0  0.6870000000000001 0 0  0.6879999999999999 0 0  0.6889999999999999 0 0  0.6899999999999999 0 0  0.6909999999999999 0 0  0.6919999999999999 0 0  0.6929999999999999 0 0  0.694 0 0  0.695 0 0  0.696 0 0  0.697 0 0  0.698 0 0  0.699 0 0  0.7 0 0  0.701 0 0  0.702 0 0  0.703 0 0  0.704 0 0  0.705 0 0  0.706 0 0  0.707 0 0  0.708 0 0  0.709 0 0  0.71 0 0  0.711 0 0  0.712 0 0  0.713 0 0  0.714 0 0  0.715 0 0  0.716 0 0  0.717 0 0  0.718 0 0  0.719 0 0  0.72 0 0  0.721 0 0  0.722 0 0  0.723 0 0  0.724 0 0  0.725 0 0  0.726 0 0  0.727 0 0  0.728 0 0  0.729 0 0  0.73 0 0  0.731 0 0  0.732 0 0  0.733 0 0  0.734 0 0  0.735 0 0  0.736 0 0  0.737 0 0  0.738 0 0  0.739 0 0  0.74 0 0  0.741 0 0  0.742 0 0  0.743 0 0  0.744 0 0  0.745 0 0  0.746 0 0  0.747 0 0  0.748 0 0  0.749 0 0  0.75 0 0  0.751 0 0  0.752 0 0  0.753 0 0  0.754 0 0  0.755 0 0  0.756 0 0  0.757 0 0  0.758 0 0  0.759 0 0  0.76 0 0  0.761 0 0  0.762 0 0  0.763 0 0  0.764 0 0  0.765 0 0  0.766 0 0  0.767 0 0  0.768 0 0  0.769 0 0  0.77 0 0  0.771 0 0  0.772 0 0  0.773 0 0  0.774 0 0  0.775 0 0  0.776 0 0  0.777 0 0  0.778 0 0  0.779 0 0  0.78 0 0  0.781 0 0  0.782 0 0  0.783 0 0  0.784 0 0  0.785 0 0  0.786 0 0  0.787 0 0  0.788 0 0  0.789 0 0  0.79 0 0  0.791 0 0  0.792 0 0  0.793 0 0  0.794 0 0  0.795 0 0  0.796 0 0  0.797 0 0  0.798 0 0  0.799 0 0  0.8 0 0  0.801 0 0  0.802 0 0  0.803 0 0  0.804 0 0  0.805 0 0  0.806 0 0  0.8070000000000001 0 0  0.8080000000000001 0 0  0.8090000000000001 0 0  0.8100000000000001 0 0  0.8110000000000001 0 0  0.8120000000000001 0 0  0.8129999999999999 0 0  0.8139999999999999 0 0  0.8149999999999999 0 0  0.8159999999999999 0 0  0.8169999999999999 0 0  0.8179999999999999 0 0  0.819 0 0  0.82 0 0  0.821 0 0  0.822 0 0  0.823 0 0  0.824 0 0  0.825 0 0  0.826 0 0  0.827 0 0  0.828 0 0  0.829 0 0  0.83 0 0  0.831 0 0  0.832 0 0  0.833 0 0  0.834 0 0  0.835 0 0  0.836 0 0  0.837 0 0  0.838 0 0  0.839 0 0  0.84 0 0  0.841 0 0  0
[...]
<PointData  Scalars="f_20-0"> 
<DataArray  type="Float64"  Name="f_20-0"  format="ascii">2.0000000000000004e+00  2.0000000000000000e+00  2.0000000000000004e+00  2.0000000000000000e+00  2.0000000000000000e+00  2.0000000000000009e+00  1.9999999999999998e+00  2.0000000000000004e+00  2.0000000000000004e+00  2.0000000000000004e+00  2.0000000000000004e+00  2.0000000000000004e+00  2.0000000000000004e+00  2.0000000000000004e+00  2.0000000000000004e+00  2.0000000000000004e+00  2.0000000000000004e+00  2.0000000000000004e+00  2.0000000000000004e+00  2.0000000000000004e+00  2.0000000000000004e+00  2.0000000000000004e+00  2.0000000000000004e+00  2.0000000000000004e+00  2.0000000000000004e+00  2.0000000000000004e+00  2.0000000000000004e+00  2.0000000000000004e+00  2.0000000000000004e+00  2.0000000000000004e+00  2.0000000000000004e+00  2.0000000000000004e+00  2.0000000000000004e+00  2.0000000000000004e+00  2.0000000000000004e+00  2.0000000000000000e+00  2.0000000000000004e+00  2.0000000000000009e+00  2.0000000000000000e+00  2.0000000000000004e+00  2.0000000000000004e+00  2.0000000000000004e+00  2.0000000000000000e+00  2.0000000000000004e+00  2.0000000000000009e+00  2.0000000000000000e+00  2.0000000000000004e+00  2.0000000000000004e+00  2.0000000000000004e+00  2.0000000000000004e+00  2.0000000000000000e+00  2.0000000000000004e+00  2.0000000000000009e+00  2.0000000000000000e+00  2.0000000000000009e+00  2.0000000000000018e+00  2.0000000000000040e+00  2.0000000000000084e+00  2.0000000000000129e+00  2.0000000000000191e+00  2.0000000000000271e+00  2.0000000000000364e+00  2.0000000000000475e+00  2.0000000000000613e+00  2.0000000000000777e+00  2.0000000000000968e+00  2.0000000000001190e+00  2.0000000000001461e+00  2.0000000000001794e+00  2.0000000000002198e+00  2.0000000000002678e+00  2.0000000000003242e+00  2.0000000000003926e+00  2.0000000000004752e+00  2.0000000000005751e+00  2.0000000000006941e+00  2.0000000000008371e+00  2.0000000000010103e+00  2.0000000000012186e+00  2.0000000000014686e+00  2.0000000000017684e+00  2.0000000000021290e+00  2.0000000000025606e+00  2.0000000000030775e+00  2.0000000000036984e+00  2.0000000000044418e+00  2.0000000000053313e+00  2.0000000000063958e+00  2.0000000000076685e+00  2.0000000000091922e+00  2.0000000000110121e+00  2.0000000000131863e+00  2.0000000000157825e+00  2.0000000000188800e+00  2.0000000000225748e+00  2.0000000000269789e+00  2.0000000000322271e+00  2.0000000000384781e+00  2.0000000000459197e+00  2.0000000000547753e+00  2.0000000000653086e+00  2.0000000000778302e+00  2.0000000000927098e+00  2.0000000001103841e+00  2.0000000001313634e+00  2.0000000001562555e+00  2.0000000001857772e+00  2.0000000002207732e+00  2.0000000002622373e+00  2.0000000003113430e+00  2.0000000003694702e+00  2.0000000004382419e+00  2.0000000005195706e+00  2.0000000006157022e+00  2.0000000007292762e+00  2.0000000008633938e+00  2.0000000010216934e+00  2.0000000012084471e+00  2.0000000014286652e+00  2.0000000016882167e+00  2.0000000019939823e+00  2.0000000023540170e+00  2.0000000027777496e+00  2.0000000032762095e+00  2.0000000038622927e+00  2.0000000045510742e+00  2.0000000053601585e+00  2.0000000063101004e+00  2.0000000074248869e+00  2.0000000087324938e+00  2.0000000102655329e+00  2.0000000120620034e+00  2.0000000141661602e+00  2.0000000166295124e+00  2.0000000195119876e+00  2.0000000228832691e+00  2.0000000268243445e+00  2.0000000314292956e+00  2.0000000368073527e+00  2.0000000430852736e+00  2.0000000504100810e+00  2.0000000589522200e+00  2.0000000689091801e+00  2.0000000805096785e+00  2.0000000940184570e+00  2.0000001097418045e+00  2.0000001280338942e+00  2.0000001493040607e+00  2.0000001740251498e+00  2.0000002027430916e+00  2.0000002360878781e+00  2.0000002747861276e+00  2.0000003196754794e+00  2.0000003717210593e+00  2.0000004320343097e+00  2.0000005018945139e+00  2.0000005827733771e+00  2.0000006763630997e+00  2.0000007846084027e+00  2.0000009097430520e+00  2.0000010543314857e+00  2.0000012213162393e+00  2.0000014140719342e+00  2.0000016364666999e+00  2.0000018929320320e+00  2.0000021885421924e+00  2.0000025291043912e+00  2.0000029212611623e+00  2.0000033726065287e+00  2.0000038918177205e+00  2.0000044888044419e+00  2.0000051748779462e+00  2.0000059629424132e+00  2.0000068677114573e+00  2.0000079059529132e+00  2.0000090967654440e+00  2.0000104618909011e+00  2.0000120260668663e+00  2.0000138174243030e+00  2.0000158679358053e+00  2.0000182139205975e+00  2.0000208966131003e+00  2.0000239628026990e+00  2.0000274655531740e+00  2.0000314650112014e+00  2.0000360293144119e+00  2.0000412356106008e+00  2.0000471712010017e+00  2.0000539348218833e+00  2.0000616380802940e+00  2.0000704070614646e+00  2.0000803841272146e+00  2.0000917299267340e+00  2.0001046256433299e+00  2.0001192755031529e+00  2.0001359095745457e+00  2.0001547868895542e+00  2.0001761989222651e+00  2.0002004734620265e+00  2.0002279789233453e+00  2.0002591291382199e+00  2.0002943886810245e+00  2.0003342787807212e+00  2.0003793838802433e+00  2.0004303589082815e+00  2.0004879373345408e+00  2.0005529400857429e+00  2.0006262854062999e+00  2.0007089997546190e+00  2.0008022298335182e+00  2.0009072558611032e+00  2.0010255061968043e+00  2.0011585734459287e+00  2.0013082321751838e+00  2.0014764583809592e+00  2.0016654508617595e+00  2.0018776546559822e+00  2.0021157867159967e+00  2.0023828639992813e+00  2.0026822341668189e+00  2.0030176090879768e+00  2.0033931013594519e+00  2.0038132640530852e+00  2.0042831339132845e+00  2.0048082782288206e+00  2.0053948456054660e+00  2.0060496208646263e+00  2.0067800842881258e+00  2.0075944754197232e+00  2.0085018616188779e+00  2.0095122115405042e+00  2.0106364736847993e+00  2.0118866601221708e+00  2.0132759354482177e+00  2.0148187109608546e+00  2.0165307439739815e+00  2.0184292420875072e+00  2.0205329721196077e+00  2.0228623732716597e+00  2.0254396739365932e+00  2.0282890113753331e+00  2.0314365532710870e+00  2.0349106199255753e+00  2.0387418055835345e+00  2.0429630970610368e+00  2.0476099875099205e+00  2.0527205827764230e+00  2.0583356974106719e+00  2.0644989369606681e+00  2.0712567627485963e+00  2.0786585348902977e+00  2.0867565288965579e+00  2.0956059208071696e+00  2.1052647354799428e+00  2.1157937524160846e+00  2.1272563633837973e+00  2.1397183761407237e+00  2.1532477587923808e+00  2.1679143197981952e+00  2.1837893193874645e+00  2.2009450092077358e+00  2.2194540984218949e+00  2.2393891462085573e+00  2.2608218826959301e+00  2.2838224627427461e+00  2.3084586596155514e+00  2.3347950084159299e+00  2.3628919119721581e+00  2.3928047246892485e+00  2.4245828323912972e+00  2.4582687483207404e+00  2.4938972470110250e+00  2.5314945585671351e+00  2.5710776458458602e+00  2.6126535860418327e+00  2.6562190762284632e+00  2.7017600795101915e+00  2.7492516247148955e+00  2.7986577681550089e+00  2.8499317211265054e+00  2.9030161417452769e+00  2.9578435847058526e+00  3.0143370978476027e+00  3.0724109502628938e+00  3.1319714732711326e+00  3.1929179930480251e+00  3.2551438321129651e+00  3.3185373562496641e+00  3.3829830437169055e+00  3.4483625547010268e+00  3.5145557807361718e+00  3.5814418561170429e+00  3.6489001159881540e+00  3.7168109886528109e+00  3.7850568125574440e+00  3.8535225712456871e+00  3.9220965422401184e+00  3.9906708582214727e+00  4.0591419809856983e+00  4.1274110904408952e+00  4.1953843923523282e+00  4.2629733496631363e+00  4.3300948430323727e+00  4.3966712667702126e+00  4.4626305666470216e+00  4.5279062261451708e+00  4.5924372076468147e+00  4.6561678548420780e+00  4.7190477623323952e+00  4.7810316180216663e+00  4.8420790234579432e+00  4.9021542968315286e+00  4.9612262628682302e+00  5.0192680333928825e+00  5.0762567818881790e+00  5.1321735149450500e+00  5.1870028430985862e+00  5.2407327531710788e+00  5.2933543839030452e+00  5.3448618063446700e+00  5.3952518102035469e+00  5.4445236970988766e+00  5.4926790814558490e+00  5.5397216995849821e+00  5.5856572273273395e+00  5.6304931065062043e+00  5.6742383803059822e+00  5.7169035375985375e+00  5.7585003661530605e+00  5.7990418145964941e+00  5.8385418629354096e+00  5.8770154014055986e+00  5.9144781173806980e+00  5.9509463900449209e+00  5.9864371925159352e+00  6.0209680010911031e+00  6.0545567112825802e+00  6.0872215603037008e+00  6.1189810556693827e+00  6.1498539095766649e+00  6.1798589787373102e+00  6.2090152093421640e+00  6.2373415868461013e+00  6.2648570902729466e+00  6.2915806507507916e+00  6.3175311140002055e+00  6.3427272065098208e+00  6.3671875051463847e+00  6.3909304099586954e+00  6.4139741199473423e+00  6.4363366115843075e+00  6.4580356198784834e+00  6.4790886217949000e+00  6.4995128218466043e+00  6.5193251396892036e+00  6.5385421995584281e+00  6.5571803214012414e+00  6.5752555135604940e+00  6.5927834668823886e+00  6.6097795501246184e+00  6.6262588065513368e+00  6.6422359516089200e+00  6.6577253715838660e+00  6.6727411231511038e+00  6.6872969337275947e+00  6.7014062025522545e+00  6.7150820024190221e+00  6.7283370819953756e+00  6.7411838686636392e+00  6.7536344718273025e+00  6.7657006866289313e+00  6.7773939980305453e+00  6.7887255852111545e+00  6.7997063262398276e+00  6.8103468029860812e+00  6.8206573062325120e+00  6.8306478409575337e+00  6.8403281317588993e+00  6.8497076283910987e+00  6.8587955113922510e+00  6.8676006977781778e+00  6.8761318467834274e+00  6.8843973656309458e+00  6.8924054153138004e+00  6.9001639163739137e+00  6.9076805546644593e+00  6.9149627870837405e+00  6.9220178472697427e+00  6.9288527512457696e+00  6.9354743030086086e+00  6.9418891000516325e+00  6.9481035388163024e+00  6.9541238200661724e+00  6.9599559541785458e+00  6.9656057663493467e+00  6.9710789017076644e+00  6.9763808303369146e+00  6.9815168522000475e+00  6.9864921019669026e+00  6.9913115537420358e+00  6.9959800256919307e+00  7.0005021845707391e+00  7.0048825501440950e+00  7.0091254995107830e+00  7.0132352713223245e+00  7.0172159699007226e+00  7.0210715692548664e+00  7.0248059169961881e+00  7.0284227381543127e+00  7.0319256388936493e+00  7.0353181101318443e+00  7.0386035310612192e+00  7.0417851725743352e+00  7.0448662005949636e+00  7.0478496793157177e+00  7.0507385743438773e+00  7.0535357557568288e+00  7.0562440010687988e+00  7.0588659981106927e+00  7.0614043478248885e+00  7.0638615669772227e+00  7.0662400907884075e+00  7.0685422754875260e+00  7.0707704007903933e+00  7.0729266723059308e+00  7.0750132238739116e+00  7.0770321198377975e+00  7.0789853572565944e+00  7.0808748680598894e+00  7.0827025211505159e+00  7.0844701244593429e+00  7.0861794269567770e+00  7.0878321206255768e+00  7.0894298423994000e+00  7.0909741760712679e+00  7.0924666541757801e+00  7.0939087598483788e+00  7.0953019286643562e+00  7.0966475504594762e+00  7.0979469711333421e+00  7.0992014944355271e+00  7.1004123837335893e+00  7.1015808637609670e+00  7.1027081223416326e+00  7.1037953120874704e+00  7.1048435520632136e+00  7.1058539294130574e+00  7.1068275009422095e+00  7.1077652946461640e+00  7.1086683111801419e+00  7.1095375252609552e+00  7.1103738869937230e+00  7.1111783231161940e+00  7.1119517381540440e+00  7.1126950154812949e+00  7.1134090182810983e+00  7.1140945904032238e+00  7.1147525571160060e+00  7.1153837257518902e+00  7.1159888862471909e+00  7.1165688115782064e+00  7.1171242580971583e+00  7.1176559657728999e+00  7.1181646583424634e+00  7.1186510433806109e+00  7.1191158122954299e+00  7.1195596402586201e+00  7.1199831860796357e+00  7.1203870920329972e+00  7.1207719836481038e+00  7.1211384694706696e+00  7.1214871408045086e+00  7.1218185714418318e+00  7.1221333173895029e+00  7.1224319165979004e+00  7.1227148886982121e+00  7.1229827347529273e+00  7.1232359370235150e+00  7.1234749587582105e+00  7.1237002440020598e+00  7.1239122174304512e+00  7.1241112842066796e+00  7.1242978298633215e+00  7.1244722202067763e+00  7.1246348012436460e+00  7.1247858991274526e+00  7.1249258201236874e+00  7.1250548505912157e+00  7.1251732569776802e+00  7.1252812858267465e+00  7.1253791637948449e+00  7.1254670976752426e+00  7.1255452744273251e+00  7.1256138612091426e+00  7.1256730054114037e+00  7.1257228346912784e+00  7.1257634570046076e+00  7.1257949606352140e+00  7.1258174142203279e+00  7.1258308667712367e+00  7.1258353476884908e+00  7.1258308667712367e+00  7.1258174142203270e+00  7.1257949606352105e+00  7.1257634570046076e+00  7.1257228346912802e+00  7.1256730054114055e+00  7.1256138612091462e+00  7.1255452744273304e+00  7.1254670976752470e+00  7.1253791637948485e+00  7.1252812858267456e+00  7.1251732569776784e+00  7.1250548505912112e+00  7.1249258201236856e+00  7.1247858991274455e+00  7.1246348012436416e+00  7.1244722202067701e+00  7.1242978298633179e+00  7.1241112842066752e+00  7.1239122174304521e+00  7.1237002440020598e+00  7.1234749587582122e+00  7.1232359370235176e+00  7.1229827347529282e+00  7.1227148886982103e+00  7.1224319165978995e+00  7.1221333173895021e+00  7.1218185714418309e+00  7.1214871408045095e+00  7.1211384694706670e+00  7.1207719836480994e+00  7.1203870920329910e+00  7.1199831860796294e+00  7.1195596402586157e+00  7.1191158122954272e+00  7.1186510433806101e+00  7.1181646583424634e+00  7.1176559657728999e+00  7.1171242580971583e+00  7.1165688115782064e+00  7.1159888862471883e+00  7.1153837257518848e+00  7.1147525571160042e+00  7.1140945904032211e+00  7.1134090182810965e+00  7.1126950154812913e+00  7.1119517381540405e+00  7.1111783231161940e+00  7.1103738869937239e+00  7.1095375252609543e+00  7.1086683111801401e+00  7.1077652946461614e+00  7.1068275009422077e+00  7.1058539294130574e+00  7.1048435520632136e+00  7.1037953120874704e+00  7.1027081223416317e+00  7.1015808637609625e+00  7.1004123837335866e+00  7.0992014944355217e+00  7.0979469711333412e+00  7.0966475504594744e+00  7.0953019286643526e+00  7.0939087598483752e+00  7.0924666541757730e+00  7.0909741760712635e+00  7.0894298423994000e+00  7.0878321206255768e+00  7.0861794269567779e+00  7.0844701244593411e+00  7.0827025211505159e+00  7.0808748680598876e+00  7.0789853572565944e+00  7.0770321198378019e+00  7.0750132238739143e+00  7.0729266723059334e+00  7.0707704007903986e+00  7.0685422754875278e+00  7.0662400907884075e+00  7.0638615669772200e+00  7.0614043478248876e+00  7.0588659981106909e+00  7.0562440010687997e+00  7.0535357557568270e+00  7.0507385743438773e+00  7.0478496793157177e+00  7.0448662005949618e+00  7.0417851725743352e+00  7.0386035310612165e+00  7.0353181101318434e+00  7.0319256388936484e+00  7.0284227381543145e+00  7.0248059169961898e+00  7.0210715692548682e+00  7.0172159699007253e+00  7.0132352713223263e+00  7.0091254995107866e+00  7.0048825501440959e+00  7.0005021845707391e+00  6.9959800256919307e+00  6.9913115537420358e+00  6.9864921019669026e+00  6.9815168522000475e+00  6.9763808303369146e+00  6.9710789017076644e+00  6.9656057663493467e+00  6.9599559541785458e+00  6.9541238200661732e+00  6.9481035388163033e+00  6.9418891000516370e+00  6.9354743030086121e+00  6.9288527512457749e+00  6.9220178472697453e+00  6.9149627870837440e+00  6.9076805546644637e+00  6.9001639163739128e+00  6.8924054153137995e+00  6.8843973656309494e+00  6.8761318467834291e+00  6.8676006977781796e+00  6.8587955113922554e+00  6.8497076283911023e+00  6.8403281317589038e+00  6.8306478409575391e+00  6.8206573062325146e+00  6.8103468029860847e+00  6.7997063262398285e+00  6.7887255852111545e+00  6.7773939980305453e+00  6.7657006866289313e+00  6.7536344718273016e+00  6.7411838686636392e+00  6.7283370819953729e+00  6.7150820024190212e+00  6.7014062025522518e+00  6.6872969337275929e+00  6.6727411231511029e+00  6.6577253715838660e+00  6.6422359516089218e+00  6.6262588065513386e+00  6.6097795501246228e+00  6.5927834668823886e+00  6.5752555135604931e+00  6.5571803214012405e+00  6.5385421995584290e+00  6.5193251396892045e+00  6.4995128218466087e+00  6.4790886217949026e+00  6.4580356198784878e+00  6.4363366115843101e+00  6.4139741199473459e+00  6.3909304099586945e+00  6.3671875051463847e+00  6.3427272065098208e+00  6.3175311140002046e+00  6.2915806507507925e+00  6.2648570902729466e+00  6.2373415868461040e+00  6.2090152093421649e+00  6.1798589787373102e+00  6.1498539095766649e+00  6.1189810556693844e+00  6.0872215603037008e+00  6.0545567112825802e+00  6.0209680010911066e+00  5.9864371925159361e+00  5.9509463900449209e+00  5.9144781173806997e+00  5.8770154014056066e+00  5.8385418629354131e+00  5.7990418145964968e+00  5.7585003661530649e+00  5.7169035375985366e+00  5.6742383803059795e+00  5.6304931065062007e+00  5.5856572273273386e+00  5.5397216995849821e+00  5.4926790814558499e+00  5.4445236970988731e+00  5.3952518102035434e+00  5.3448618063446638e+00  5.2933543839030399e+00  5.2407327531710735e+00  5.1870028430985791e+00  5.1321735149450438e+00  5.0762567818881719e+00  5.0192680333928772e+00  4.9612262628682320e+00  4.9021542968315321e+00  4.8420790234579494e+00  4.7810316180216743e+00  4.7190477623324023e+00  4.6561678548420868e+00  4.5924372076468245e+00  4.5279062261451806e+00  4.4626305666470305e+00  4.3966712667702206e+00  4.3300948430323798e+00  4.2629733496631443e+00  4.1953843923523371e+00  4.1274110904409032e+00  4.0591419809857046e+00  3.9906708582214776e+00  3.9220965422401211e+00  3.8535225712456911e+00  3.7850568125574489e+00  3.7168109886528189e+00  3.6489001159881589e+00  3.5814418561170487e+00  3.5145557807361776e+00  3.4483625547010321e+00  3.3829830437169104e+00  3.3185373562496716e+00  3.2551438321129695e+00  3.1929179930480309e+00  3.1319714732711406e+00  3.0724109502629013e+00  3.0143370978476103e+00  2.9578435847058557e+00  2.9030161417452813e+00  2.8499317211265089e+00  2.7986577681550107e+00  2.7492516247148964e+00  2.7017600795101950e+00  2.6562190762284641e+00  2.6126535860418341e+00  2.5710776458458633e+00  2.5314945585671387e+00  2.4938972470110277e+00  2.4582687483207430e+00  2.4245828323913003e+00  2.3928047246892485e+00  2.3628919119721594e+00  2.3347950084159317e+00  2.3084586596155536e+00  2.2838224627427479e+00  2.2608218826959310e+00  2.2393891462085591e+00  2.2194540984218967e+00  2.2009450092077376e+00  2.1837893193874671e+00  2.1679143197981974e+00  2.1532477587923822e+00  2.1397183761407237e+00  2.1272563633837982e+00  2.1157937524160850e+00  2.1052647354799428e+00  2.0956059208071696e+00  2.0867565288965579e+00  2.0786585348902982e+00  2.0712567627485963e+00  2.0644989369606681e+00  2.0583356974106719e+00  2.0527205827764230e+00  2.0476099875099196e+00  2.0429630970610360e+00  2.0387418055835327e+00  2.0349106199255740e+00  2.0314365532710865e+00  2.0282890113753336e+00  2.0254396739365923e+00  2.0228623732716589e+00  2.0205329721196064e+00  2.0184292420875050e+00  2.0165307439739797e+00  2.0148187109608533e+00  2.0132759354482186e+00  2.0118866601221712e+00  2.0106364736847988e+00  2.0095122115405042e+00  2.0085018616188788e+00  2.0075944754197237e+00  2.0067800842881263e+00  2.0060496208646277e+00  2.0053948456054660e+00  2.0048082782288206e+00  2.0042831339132854e+00  2.0038132640530861e+00  2.0033931013594519e+00  2.0030176090879763e+00  2.0026822341668180e+00  2.0023828639992813e+00  2.0021157867159953e+00  2.0018776546559804e+00  2.0016654508617577e+00  2.0014764583809574e+00  2.0013082321751825e+00  2.0011585734459270e+00  2.0010255061968021e+00  2.0009072558611014e+00  2.0008022298335164e+00  2.0007089997546186e+00  2.0006262854062982e+00  2.0005529400857411e+00  2.0004879373345377e+00  2.0004303589082792e+00  2.0003793838802415e+00  2.0003342787807199e+00  2.0002943886810232e+00  2.0002591291382195e+00  2.0002279789233453e+00  2.0002004734620265e+00  2.0001761989222651e+00  2.0001547868895542e+00  2.0001359095745448e+00  2.0001192755031534e+00  2.0001046256433308e+00  2.0000917299267340e+00  2.0000803841272137e+00  2.0000704070614628e+00  2.0000616380802931e+00  2.0000539348218838e+00  2.0000471712010026e+00  2.0000412356105999e+00  2.0000360293144119e+00  2.0000314650112023e+00  2.0000274655531749e+00  2.0000239628026995e+00  2.0000208966131003e+00  2.0000182139205989e+00  2.0000158679358080e+00  2.0000138174243047e+00  2.0000120260668677e+00  2.0000104618909020e+00  2.0000090967654458e+00  2.0000079059529154e+00  2.0000068677114586e+00  2.0000059629424145e+00  2.0000051748779