<?xml version="1.0"?>
<VTKFile type="UnstructuredGrid"  version="0.1"  >
<UnstructuredGrid>
<Piece  NumberOfPoints="1001" NumberOfCells="1000">
<Points>
<DataArray  type="Float64"  NumberOfComponents="3"  format="ascii">0 0 0  0.001 0 0  0.002 0 0  0.003 0 0  0.004 0 0  0.005 0 0  0.006 0 0  0.007 0 0  0.008 0 0  0.008999999999999999 0 0  0.01 0 0  0.011 0 0  0.012 0 0  0.013 0 0  0.014 0 0  0.015 0 0  0.016 0 0  0.017 0 0  0.018 0 0  0.019 0 0  0.02 0 0  0.021 0 0  0.022 0 0  0.023 0 0  0.024 0 0  0.025 0 0  0.026 0 0  0.027 0 0  0.028 0 0  0.029 0 0  0.03 0 0  0.031 0 0  0.032 0 0  0.033 0 0  0.034 0 0  0.035 0 0  0.036 0 0  0.037 0 0  0.038 0 0  0.039 0 0  0.04 0 0  0.041 0 0  0.042 0 0  0.043 0 0  0.044 0 0  0.045 0 0  0.046 0 0  0.047 0 0  0.048 0 0  0.049 0 0  0.05 0 0  0.051 0 0  0.052 0 0  0.053 0 0  0.054 0 0  0.055 0 0  0.056 0 0  0.057 0 0  0.058 0 0  0.059 0 0  0.06 0 0  0.061 0 0  0.062 0 0  0.063 0 0  0.064 0 0  0.065 0 0  0.066 0 0  0.067 0 0  0.068 0 0  0.06900000000000001 0 0  0.07000000000000001 0 0  0.07099999999999999 0 0  0.07199999999999999 0 0  0.073 0 0  0.074 0 0  0.075 0 0  0.076 0 0  0.077 0 0  0.078 0 0  0.079 0 0  0.08 0 0  0.081 0 0  0.082 0 0  0.083 0 0  0.08400000000000001 0 0  0.08500000000000001 0 0  0.08599999999999999 0 0  0.08699999999999999 0 0  0.08799999999999999 0 0  0.089 0 0  0.09 0 0  0.091 0 0  0.092 0 0  0.093 0 0  0.094 0 0  0.095 0 0  0.096 0 0  0.097 0 0  0.098 0 0  0.099 0 0  0.1 0 0  0.101 0 0  0.102 0 0  0.103 0 0  0.104 0 0  0.105 0 0  0.106 0 0  0.107 0 0  0.108 0 0  0.109 0 0  0.11 0 0  0.111 0 0  0.112 0 0  0.113 0 0  0.114 0 0  0.115 0 0  0.116 0 0  0.117 0 0  0.118 0 0  0.119 0 0  0.12 0 0  0.121 0 0  0.122 0 0  0.123 0 0  0.124 0 0  0.125 0 0  0.126 0 0  0.127 0 0  0.128 0 0  0.129 0 0  0.13 0 0  0.131 0 0  0.132 0 0  0.133 0 0  0.134 0 0  0.135 0 0  0.136 0 0  0.137 0 0  0.138 0 0  0.139 0 0  0.14 0 0  0.141 0 0  0.142 0 0  0.143 0 0  0.144 0 0  0.145 0 0  0.146 0 0  0.147 0 0  0.148 0 0  0.149 0 0  0.15 0 0  0.151 0 0  0.152 0 0  0.153 0 0  0.154 0 0  0.155 0 0  0.156 0 0  0.157 0 0  0.158 0 0  0.159 0 0  0.16 0 0  0.161 0 0  0.162 0 0  0.163 0 0  0.164 0 0  0.165 0 0  0.166 0 0  0.167 0 0  0.168 0 0  0.169 0 0  0.17 0 0  0.171 0 0  0.172 0 0  0.173 0 0  0.174 0 0  0.175 0 0  0.176 0 0  0.177 0 0  0.178 0 0  0.179 0 0  0.18 0 0  0.181 0 0  0.182 0 0  0.183 0 0  0.184 0 0  0.185 0 0  0.186 0 0  0.187 0 0  0.188 0 0  0.189 0 0  0.19 0 0  0.191 0 0  0.192 0 0  0.193 0 0  0.194 0 0  0.195 0 0  0.196 0 0  0.197 0 0  0.198 0 0  0.199 0 0  0.2 0 0  0.201 0 0  0.202 0 0  0.203 0 0  0.204 0 0  0.205 0 0  0.206 0 0  0.207 0 0  0.208 0 0  0.209 0 0  0.21 0 0  0.211 0 0  0.212 0 0  0.213 0 0  0.214 0 0  0.215 0 0  0.216 0 0  0.217 0 0  0.218 0 0  0.219 0 0  0.22 0 0  0.221 0 0  0.222 0 0  0.223 0 0  0.224 0 0  0.225 0 0  0.226 0 0  0.227 0 0  0.228 0 0  0.229 0 0  0.23 0 0  0.231 0 0  0.232 0 0  0.233 0 0  0.234 0 0  0.235 0 0  0.236 0 0  0.237 0 0  0.238 0 0  0.239 0 0  0.24 0 0  0.241 0 0  0.242 0 0  0.243 0 0  0.244 0 0  0.245 0 0  0.246 0 0  0.247 0 0  0.248 0 0  0.249 0 0  0.25 0 0  0.251 0 0  0.252 0 0  0.253 0 0  0.254 0 0  0.255 0 0  0.256 0 0  0.257 0 0  0.258 0 0  0.259 0 0  0.26 0 0  0.261 0 0  0.262 0 0  0.263 0 0  0.264 0 0  0.265 0 0  0.266 0 0  0.267 0 0  0.268 0 0  0.269 0 0  0.27 0 0  0.271 0 0  0.272 0 0  0.273 0 0  0.274 0 0  0.275 0 0  0.276 0 0  0.277 0 0  0.278 0 0  0.279 0 0  0.28 0 0  0.281 0 0  0.282 0 0  0.283 0 0  0.284 0 0  0.285 0 0  0.286 0 0  0.287 0 0  0.288 0 0  0.289 0 0  0.29 0 0  0.291 0 0  0.292 0 0  0.293 0 0  0.294 0 0  0.295 0 0  0.296 0 0  0.297 0 0  0.298 0 0  0.299 0 0  0.3 0 0  0.301 0 0  0.302 0 0  0.303 0 0  0.304 0 0  0.305 0 0  0.306 0 0  0.307 0 0  0.308 0 0  0.309 0 0  0.31 0 0  0.311 0 0  0.312 0 0  0.313 0 0  0.314 0 0  0.315 0 0  0.316 0 0  0.317 0 0  0.318 0 0  0.319 0 0  0.32 0 0  0.321 0 0  0.322 0 0  0.323 0 0  0.324 0 0  0.325 0 0  0.326 0 0  0.327 0 0  0.328 0 0  0.329 0 0  0.33 0 0  0.331 0 0  0.332 0 0  0.333 0 0  0.334 0 0  0.335 0 0  0.336 0 0  0.337 0 0  0.338 0 0  0.339 0 0  0.34 0 0  0.341 0 0  0.342 0 0  0.343 0 0  0.344 0 0  0.345 0 0  0.346 0 0  0.347 0 0  0.348 0 0  0.349 0 0  0.35 0 0  0.351 0 0  0.352 0 0  0.353 0 0  0.354 0 0  0.355 0 0  0.356 0 0  0.357 0 0  0.358 0 0  0.359 0 0  0.36 0 0  0.361 0 0  0.362 0 0  0.363 0 0  0.364 0 0  0.365 0 0  0.366 0 0  0.367 0 0  0.368 0 0  0.369 0 0  0.37 0 0  0.371 0 0  0.372 0 0  0.373 0 0  0.374 0 0  0.375 0 0  0.376 0 0  0.377 0 0  0.378 0 0  0.379 0 0  0.38 0 0  0.381 0 0  0.382 0 0  0.383 0 0  0.384 0 0  0.385 0 0  0.386 0 0  0.387 0 0  0.388 0 0  0.389 0 0  0.39 0 0  0.391 0 0  0.392 0 0  0.393 0 0  0.394 0 0  0.395 0 0  0.396 0 0  0.397 0 0  0.398 0 0  0.399 0 0  0.4 0 0  0.401 0 0  0.402 0 0  0.403 0 0  0.404 0 0  0.405 0 0  0.406 0 0  0.407 0 0  0.408 0 0  0.409 0 0  0.41 0 0  0.411 0 0  0.412 0 0  0.413 0 0  0.414 0 0  0.415 0 0  0.416 0 0  0.417 0 0  0.418 0 0  0.419 0 0  0.42 0 0  0.421 0 0  0.422 0 0  0.423 0 0  0.424 0 0  0.425 0 0  0.426 0 0  0.427 0 0  0.428 0 0  0.429 0 0  0.43 0 0  0.431 0 0  0.432 0 0  0.433 0 0  0.434 0 0  0.435 0 0  0.436 0 0  0.437 0 0  0.438 0 0  0.439 0 0  0.44 0 0  0.441 0 0  0.442 0 0  0.443 0 0  0.444 0 0  0.445 0 0  0.446 0 0  0.447 0 0  0.448 0 0  0.449 0 0  0.45 0 0  0.451 0 0  0.452 0 0  0.453 0 0  0.454 0 0  0.455 0 0  0.456 0 0  0.457 0 0  0.458 0 0  0.459 0 0  0.46 0 0  0.461 0 0  0.462 0 0  0.463 0 0  0.464 0 0  0.465 0 0  0.466 0 0  0.467 0 0  0.468 0 0  0.469 0 0  0.47 0 0  0.471 0 0  0.472 0 0  0.473 0 0  0.474 0 0  0.475 0 0  0.476 0 0  0.477 0 0  0.478 0 0  0.479 0 0  0.48 0 0  0.481 0 0  0.482 0 0  0.483 0 0  0.484 0 0  0.485 0 0  0.486 0 0  0.487 0 0  0.488 0 0  0.489 0 0  0.49 0 0  0.491 0 0  0.492 0 0  0.493 0 0  0.494 0 0  0.495 0 0  0.496 0 0  0.497 0 0  0.498 0 0  0.499 0 0  0.5 0 0  0.501 0 0  0.502 0 0  0.503 0 0  0.504 0 0  0.505 0 0  0.506 0 0  0.507 0 0  0.508 0 0  0.509 0 0  0.51 0 0  0.511 0 0  0.512 0 0  0.513 0 0  0.514 0 0  0.515 0 0  0.516 0 0  0.517 0 0  0.518 0 0  0.519 0 0  0.52 0 0  0.521 0 0  0.522 0 0  0.523 0 0  0.524 0 0  0.525 0 0  0.526 0 0  0.527 0 0  0.528 0 0  0.529 0 0  0.53 0 0  0.531 0 0  0.532 0 0  0.533 0 0  0.534 0 0  0.535 0 0  0.536 0 0  0.537 0 0  0.538 0 0  0.539 0 0  0.54 0 0  0.541 0 0  0.542 0 0  0.543 0 0  0.544 0 0  0.545 0 0  0.546 0 0  0.547 0 0  0.548 0 0  0.549 0 0  0.55 0 0  0.551 0 0  0.552 0 0  0.553 0 0  0.554 0 0  0.555 0 0  0.556 0 0  0.5570000000000001 0 0  0.5580000000000001 0 0  0.5590000000000001 0 0  0.5600000000000001 0 0  0.5610000000000001 0 0  0.5620000000000001 0 0  0.5629999999999999 0 0  0.5639999999999999 0 0  0.5649999999999999 0 0  0.5659999999999999 0 0  0.5669999999999999 0 0  0.5679999999999999 0 0  0.569 0 0  0.57 0 0  0.571 0 0  0.572 0 0  0.573 0 0  0.574 0 0  0.575 0 0  0.576 0 0  0.577 0 0  0.578 0 0  0.579 0 0  0.58 0 0  0.581 0 0  0.582 0 0  0.583 0 0  0.584 0 0  0.585 0 0  0.586 0 0  0.587 0 0  0.588 0 0  0.589 0 0  0.59 0 0  0.591 0 0  0.592 0 0  0.593 0 0  0.594 0 0  0.595 0 0  0.596 0 0  0.597 0 0  0.598 0 0  0.599 0 0  0.6 0 0  0.601 0 0  0.602 0 0  0.603 0 0  0.604 0 0  0.605 0 0  0.606 0 0  0.607 0 0  0.608 0 0  0.609 0 0  0.61 0 0  0.611 0 0  0.612 0 0  0.613 0 0  0.614 0 0  0.615 0 0  0.616 0 0  0.617 0 0  0.618 0 0  0.619 0 0  0.62 0 0  0.621 0 0  0.622 0 0  0.623 0 0  0.624 0 0  0.625 0 0  0.626 0 0  0.627 0 0  0.628 0 0  0.629 0 0  0.63 0 0  0.631 0 0  0.632 0 0  0.633 0 0  0.634 0 0  0.635 0 0  0.636 0 0  0.637 0 0  0.638 0 0  0.639 0 0  0.64 0 0  0.641 0 0  0.642 0 0  0.643 0 0  0.644 0 0  0.645 0 0  0.646 0 0  0.647 0 0  0.648 0 0  0.649 0 0  0.65 0 0  0.651 0 0  0.652 0 0  0.653 0 0  0.654 0 0  0.655 0 0  0.656 0 0  0.657 0 0  0.658 0 0  0.659 0 0  0.66 0 0  0.661 0 0  0.662 0 0  0.663 0 0  0.664 0 0  0.665 0 0  0.666 0 0  0.667 0 0  0.668 0 0  0.669 0 0  0.67 0 0  0.671 0 0  0.672 0 0  0.673 0 0  0.674 0 0  0.675 0 0  0.676 0 0  0.677 0 0  0.678 0 0  0.679 0 0  0.68 0 0  0.681 0 0  0.6820000000000001 0 0  0.6830000000000001 0 0  0.6840000000000001 0 0  0.6850000000000001 0 0  0.6860000000000001 0 0  0.6870000000000001 0 0  0.6879999999999999 0 0  0.6889999999999999 0 0  0.6899999999999999 0 0  0.6909999999999999 0 0  0.6919999999999999 0 0  0.6929999999999999 0 0  0.694 0 0  0.695 0 0  0.696 0 0  0.697 0 0  0.698 0 0  0.699 0 0  0.7 0 0  0.701 0 0  0.702 0 0  0.703 0 0  0.704 0 0  0.705 0 0  0.706 0 0  0.707 0 0  0.708 0 0  0.709 0 0  0.71 0 0  0.711 0 0  0.712 0 0  0.713 0 0  0.714 0 0  0.715 0 0  0.716 0 0  0.717 0 0  0.718 0 0  0.719 0 0  0.72 0 0  0.721 0 0  0.722 0 0  0.723 0 0  0.724 0 0  0.725 0 0  0.726 0 0  0.727 0 0  0.728 0 0  0.729 0 0  0.73 0 0  0.731 0 0  0.732 0 0  0.733 0 0  0.734 0 0  0.735 0 0  0.736 0 0  0.737 0 0  0.738 0 0  0.739 0 0  0.74 0 0  0.741 0 0  0.742 0 0  0.743 0 0  0.744 0 0  0.745 0 0  0.746 0 0  0.747 0 0  0.748 0 0  0.749 0 0  0.75 0 0  0.751 0 0  0.752 0 0  0.753 0 0  0.754 0 0  0.755 0 0  0.756 0 0  0.757 0 0  0.758 0 0  0.759 0 0  0.76 0 0  0.761 0 0  0.762 0 0  0.763 0 0  0.764 0 0  0.765 0 0  0.766 0 0  0.767 0 0  0.768 0 0  0.769 0 0  0.77 0 0  0.771 0 0  0.772 0 0  0.773 0 0  0.774 0 0  0.775 0 0  0.776 0 0  0.777 0 0  0.778 0 0  0.779 0 0  0.78 0 0  0.781 0 0  0.782 0 0  0.783 0 0  0.784 0 0  0.785 0 0  0.786 0 0  0.787 0 0  0.788 0 0  0.789 0 0  0.79 0 0  0.791 0 0  0.792 0 0  0.793 0 0  0.794 0 0  0.795 0 0  0.796 0 0  0.797 0 0  0.798 0 0  0.799 0 0  0.8 0 0  0.801 0 0  0.802 0 0  0.803 0 0  0.804 0 0  0.805 0 0  0.806 0 0  0.8070000000000001 0 0  0.8080000000000001 0 0  0.8090000000000001 0 0  0.8100000000000001 0 0  0.8110000000000001 0 0  0.8120000000000001 0 0  0.8129999999999999 0 0  0.8139999999999999 0 0  0.8149999999999999 0 0  0.8159999999999999 0 0  0.8169999999999999 0 0  0.8179999999999999 0 0  0.819 0 0  0.82 0 0  0.821 0 0  0.822 0 0  0.823 0 0  0.824 0 0  0.825 0 0  0.826 0 0  0.827 0 0  0.828 0 0  0.829 0 0  0.83 0 0  0.831 0 0  0.832 0 0  0.833 0 0  0.834 0 0  0.835 0 0  0.836 0 0  0.837 0 0  0.838 0 0  0.839 0 0  0.84 0 0  0.841 0 0  0
[...]
<PointData  Scalars="f_20-0"> 
<DataArray  type="Float64"  Name="f_20-0"  format="ascii">4.3046060689715100e+00  4.3066293536602505e+00  4.3126809025817447e+00  4.3227062512636740e+00  4.3366161074876413e+00  4.3542885011937722e+00  4.3755716540879028e+00  4.4002874412227744e+00  4.4282352967186558e+00  4.4591964055648221e+00  4.4929380230500255e+00  4.5292177719170867e+00  4.5677877832746265e+00  4.6083985686563977e+00  4.6508025352527698e+00  4.6947570821666158e+00  4.7400272407288968e+00  4.7863878449781039e+00  4.8336252383223375e+00  4.8815385385564385e+00  4.9299404955844786e+00  4.9786579845080254e+00  5.0275321815295984e+00  5.0764184718887151e+00  5.1251861383725714e+00  5.1737178764155178e+00  5.2219091779792706e+00  5.2696676217831193e+00  5.3169121024435686e+00  5.3635720260124673e+00  5.4095864945150911e+00  5.4549034975530502e+00  5.4994791249552080e+00  5.5432768108856596e+00  5.5862666167643313e+00  5.6284245578070227e+00  5.6697319759135425e+00  5.7101749599783025e+00  5.7497438134154555e+00  5.7884325677276820e+00  5.8262385402519490e+00  5.8631619337398879e+00  5.8992054751317813e+00  5.9343740907239697e+00  5.9686746148779815e+00  6.0021155294485471e+00  6.0347067311953300e+00  6.0664593245709302e+00  6.0973854374322878e+00  6.1274980573918887e+00  6.1568108867016367e+00  6.1853382137387616e+00  6.2130947993357850e+00  6.2400957763618461e+00  6.2663565611183873e+00  6.2918927752577014e+00  6.3167201770666095e+00  6.3408546010804221e+00  6.3643119051037642e+00  6.3871079238157815e+00  6.4092584282279139e+00  6.4307790903439184e+00  6.4516854524443543e+00  6.4719929004826477e+00  6.4917166411373399e+00  6.5108716821162895e+00  6.5294728153538291e+00  6.5475346027819956e+00  6.5650713643923968e+00  6.5820971683366256e+00  6.5986258228408543e+00  6.6146708697347414e+00  6.6302455794164228e+00  6.6453629470945437e+00  6.6600356901652580e+00  6.6742762465971062e+00  6.6880967742100781e+00  6.7015091507469249e+00  6.7145249746453288e+00  6.7271555664289222e+00  6.7394119706434354e+00  6.7513049582716969e+00  6.7628450295679050e+00  6.7740424172574834e+00  6.7849070900541761e+00  6.7954487564508739e+00  6.8056768687448548e+00  6.8156006272621337e+00  6.8252289847489624e+00  6.8345706509018109e+00  6.8436340970098515e+00  6.8524275606867562e+00  6.8609590506706351e+00  6.8692363516734360e+00  6.8772670292627200e+00  6.8850584347606505e+00  6.8926177101465829e+00  6.8999517929510192e+00  6.9070674211301100e+00  6.9139711379109805e+00  6.9206692965992973e+00  6.9271680653414718e+00  6.9334734318347939e+00  6.9395912079796283e+00  6.9455270344685127e+00  6.9512863853077116e+00  6.9568745722674166e+00  6.9622967492572965e+00  6.9675579166246662e+00  6.9726629253729504e+00  6.9776164812986394e+00  6.9824231490451814e+00  6.9870873560727480e+00  6.9916133965430012e+00  6.9960054351183860e+00  7.0002675106756111e+00  7.0044035399333522e+00  7.0084173209942575e+00  7.0123125368016730e+00  7.0160927585115811e+00  7.0197614487804207e+00  7.0233219649695933e+00  7.0267775622675659e+00  7.0301313967305834e+00  7.0333865282431320e+00  7.0365459233992906e+00  7.0396124583062676e+00  7.0425889213114088e+00  7.0454780156540764e+00  7.0482823620437234e+00  7.0510045011657043e+00  7.0536468961161853e+00  7.0562119347677159e+00  7.0587019320668958e+00  7.0611191322656852e+00  7.0634657110878614e+00  7.0657437778321128e+00  7.0679553774133232e+00  7.0701024923435094e+00  7.0721870446539219e+00  7.0742108977598042e+00  7.0761758582692798e+00  7.0780836777377898e+00  7.0799360543695586e+00  7.0817346346674679e+00  7.0834810150327741e+00  7.0851767433159907e+00  7.0868233203203284e+00  7.0884222012590250e+00  7.0899747971677805e+00  7.0914824762737103e+00  7.0929465653219328e+00  7.0943683508611119e+00  7.0957490804890782e+00  7.0970899640597587e+00  7.0983921748525081e+00  7.0996568507049798e+00  7.1008850951106428e+00  7.1020779782819563e+00  7.1032365381802931e+00  7.1043617815135747e+00  7.1054546847026261e+00  7.1065161948172131e+00  7.1075472304826484e+00  7.1085486827579469e+00  7.1095214159863245e+00  7.1104662686189757e+00  7.1113840540129019e+00  7.1122755612036368e+00  7.1131415556536401e+00  7.1139827799771238e+00  7.1147999546420477e+00  7.1155937786500161e+00  7.1163649301947540e+00  7.1171140672998581e+00  7.1178418284364762e+00  7.1185488331215350e+00  7.1192356824971492e+00  7.1199029598918244e+00  7.1205512313639883e+00  7.1211810462284744e+00  7.1217929375664344e+00  7.1223874227192780e+00  7.1229650037670940e+00  7.1235261679920887e+00  7.1240713883274811e+00  7.1246011237923774e+00  7.1251158199129936e+00  7.1256159091307660e+00  7.1261018111976604e+00  7.1265739335591798e+00  7.1270326717254129e+00  7.1274784096305268e+00  7.1279115199810583e+00  7.1283323645934020e+00  7.1287412947207782e+00  7.1291386513700763e+00  7.1295247656088643e+00  7.1298999588628948e+00  7.1302645432043983e+00  7.1306188216314723e+00  7.1309630883388424e+00  7.1312976289802599e+00  7.1316227209228380e+00  7.1319386334935402e+00  7.1322456282181053e+00  7.1325439590526241e+00  7.1328338726080283e+00  7.1331156083676905e+00  7.1333893988983652e+00  7.1336554700546912e+00  7.1339140411774489e+00  7.1341653252857551e+00  7.1344095292634426e+00  7.1346468540397279e+00  7.1348774947644058e+00  7.1351016409777488e+00  7.1353194767752122e+00  7.1355311809671909e+00  7.1357369272339337e+00  7.1359368842757682e+00  7.1361312159587982e+00  7.1363200814562191e+00  7.1365036353853846e+00  7.1366820279407159e+00  7.1368554050226791e+00  7.1370239083628313e+00  7.1371876756451700e+00  7.1373468406238327e+00  7.1375015332372715e+00  7.1376518797190229e+00  7.1377980027051935e+00  7.1379400213387028e+00  7.1380780513704734e+00  7.1382122052575818e+00  7.1383425922584989e+00  7.1384693185255159e+00  7.1385924871944173e+00  7.1387121984715343e+00  7.1388285497181698e+00  7.1389416355325883e+00  7.1390515478295464e+00  7.1391583759175008e+00  7.1392622065735285e+00  7.1393631241160627e+00  7.1394612104754716e+00  7.1395565452625993e+00  7.1396492058352372e+00  7.1397392673627209e+00  7.1398268028885816e+00  7.1399118833913917e+00  7.1399945778438303e+00  7.1400749532700170e+00  7.1401530748011908e+00  7.1402290057297479e+00  7.1403028075617136e+00  7.1403745400677039e+00  7.1404442613323855e+00  7.1405120278025036e+00  7.1405778943335401e+00  7.1406419142349833e+00  7.1407041393143142e+00  7.1407646199197261e+00  7.1408234049815649e+00  7.1408805420526340e+00  7.1409360773472903e+00  7.1409900557794268e+00  7.1410425209993722e+00  7.1410935154297066e+00  7.1411430803000728e+00  7.1411912556809574e+00  7.1412380805165263e+00  7.1412835926565057e+00  7.1413278288871433e+00  7.1413708249612950e+00  7.1414126156276438e+00  7.1414532346590844e+00  7.1414927148802825e+00  7.1415310881944629e+00  7.1415683856094248e+00  7.1416046372628186e+00  7.1416398724466834e+00  7.1416741196313165e+00  7.1417074064884316e+00  7.1417397599136718e+00  7.1417712060484746e+00  7.1418017703013410e+00  7.1418314773684388e+00  7.1418603512536940e+00  7.1418884152882631e+00  7.1419156921494551e+00  7.1419422038791440e+00  7.1419679719016269e+00  7.1419930170409982e+00  7.1420173595380110e+00  7.1420410190664887e+00  7.1420640147492422e+00  7.1420863651735518e+00  7.1421080884062116e+00  7.1421292020081415e+00  7.1421497230485942e+00  7.1421696681189522e+00  7.1421890533461365e+00  7.1422078944056393e+00  7.1422262065341977e+00  7.1422440045420812e+00  7.1422613028250677e+00  7.1422781153760644e+00  7.1422944557963879e+00  7.1423103373067525e+00  7.1423257727579319e+00  7.1423407746411280e+00  7.1423553550980410e+00  7.1423695259306630e+00  7.1423832986107918e+00  7.1423966842892774e+00  7.1424096938050106e+00  7.1424223376936533e+00  7.1424346261961338e+00  7.1424465692668866e+00  7.1424581765818829e+00  7.1424694575464160e+00  7.1424804213026771e+00  7.1424910767371133e+00  7.1425014324875917e+00  7.1425114969503403e+00  7.1425212782867202e+00  7.1425307844297814e+00  7.1425400230906604e+00  7.1425490017647748e+00  7.1425577277378647e+00  7.1425662080918499e+00  7.1425744497105272e+00  7.1425824592851095e+00  7.1425902433196198e+00  7.1425978081361032e+00  7.1426051598797322e+00  7.1426123045237393e+00  7.1426192478742259e+00  7.1426259955748357e+00  7.1426325531112917e+00  7.1426389258158007e+00  7.1426451188713607e+00  7.1426511373159167e+00  7.1426569860464184e+00  7.1426626698227533e+00  7.1426681932715859e+00  7.1426735608900724e+00  7.1426787770494755e+00  7.1426838459986977e+00  7.1426887718676779e+00  7.1426935586707287e+00  7.1426982103097600e+00  7.1427027305774260e+00  7.1427071231601635e+00  7.1427113916411722e+00  7.1427155395032935e+00  7.1427195701318098e+00  7.1427234868171734e+00  7.1427272927576562e+00  7.1427309910619226e+00  7.1427345847515298e+00  7.1427380767633641e+00  7.1427414699520044e+00  7.1427447670920223e+00  7.1427479708802126e+00  7.1427510839377755e+00  7.1427541088124142e+00  7.1427570479803988e+00  7.1427599038485559e+00  7.1427626787562026e+00  7.1427653749770528e+00  7.1427679947210265e+00  7.1427705401360422e+00  7.1427730133097462e+00  7.1427754162712045e+00  7.1427777509925221e+00  7.1427800193904485e+00  7.1427822233279219e+00  7.1427843646155642e+00  7.1427864450131526e+00  7.1427884662310257e+00  7.1427904299314866e+00  7.1427923377301248e+00  7.1427941911971295e+00  7.1427959918585575e+00  7.1427977411975627e+00  7.1427994406555975e+00  7.1428010916335758e+00  7.1428026954930122e+00  7.1428042535571130e+00  7.1428057671118461e+00  7.1428072374069922e+00  7.1428086656571415e+00  7.1428100530426937e+00  7.1428114007107935e+00  7.1428127097762761e+00  7.1428139813225524e+00  7.1428152164025063e+00  7.1428164160393299e+00  7.1428175812273613e+00  7.1428187129328924e+00  7.1428198120949409e+00  7.1428208796260213e+00  7.1428219164128830e+00  7.1428229233172225e+00  7.1428239011763930e+00  7.1428248508040726e+00  7.1428257729909301e+00  7.1428266685052684e+00  7.1428275380936395e+00  7.1428283824814578e+00  7.1428292023735871e+00  7.1428299984549124e+00  7.1428307713908890e+00  7.1428315218280929e+00  7.1428322503947452e+00  7.1428329577012102e+00  7.1428336443405014e+00  7.1428343108887651e+00  7.1428349579057331e+00  7.1428355859351935e+00  7.1428361955054225e+00  7.1428367871296139e+00  7.1428373613063005e+00  7.1428379185197510e+00  7.1428384592403686e+00  7.1428389839250697e+00  7.1428394930176520e+00  7.1428399869491601e+00  7.1428404661382299e+00  7.1428409309914294e+00  7.1428413819035841e+00  7.1428418192580994e+00  7.1428422434272667e+00  7.1428426547725747e+00  7.1428430536449916e+00  7.1428434403852457e+00  7.1428438153241043e+00  7.1428441787826431e+00  7.1428445310724964e+00  7.1428448724961227e+00  7.1428452033470284e+00  7.1428455239100144e+00  7.1428458344614008e+00  7.1428461352692478e+00  7.1428464265935752e+00  7.1428467086865570e+00  7.1428469817927400e+00  7.1428472461492216e+00  7.1428475019858517e+00  7.1428477495254015e+00  7.1428479889837471e+00  7.1428482205700483e+00  7.1428484444868916e+00  7.1428486609304702e+00  7.1428488700907309e+00  7.1428490721515185e+00  7.1428492672907238e+00  7.1428494556804214e+00  7.1428496374870045e+00  7.1428498128713143e+00  7.1428499819887632e+00  7.1428501449894526e+00  7.1428503020182941e+00  7.1428504532151145e+00  7.1428505987147677e+00  7.1428507386472377e+00  7.1428508731377311e+00  7.1428510023067817e+00  7.1428511262703376e+00  7.1428512451398465e+00  7.1428513590223410e+00  7.1428514680205213e+00  7.1428515722328303e+00  7.1428516717535260e+00  7.1428517666727549e+00  7.1428518570766162e+00  7.1428519430472290e+00  7.1428520246627896e+00  7.1428521019976285e+00  7.1428521751222709e+00  7.1428522441034774e+00  7.1428523090043097e+00  7.1428523698841575e+00  7.1428524267987967e+00  7.1428524798004212e+00  7.1428525289376852e+00  7.1428525742557349e+00  7.1428526157962517e+00  7.1428526535974610e+00  7.1428526876941847e+00  7.1428527181178438e+00  7.1428527448964987e+00  7.1428527680548592e+00  7.1428527876143049e+00  7.1428528035929011e+00  7.1428528160054077e+00  7.1428528248632963e+00  7.1428528301747560e+00  7.1428528319446958e+00  7.1428528301747551e+00  7.1428528248632928e+00  7.1428528160054041e+00  7.1428528035928975e+00  7.1428527876143022e+00  7.1428527680548575e+00  7.1428527448964978e+00  7.1428527181178412e+00  7.1428526876941820e+00  7.1428526535974610e+00  7.1428526157962500e+00  7.1428525742557349e+00  7.1428525289376843e+00  7.1428524798004220e+00  7.1428524267987985e+00  7.1428523698841584e+00  7.1428523090043106e+00  7.1428522441034792e+00  7.1428521751222700e+00  7.1428521019976268e+00  7.1428520246627878e+00  7.1428519430472290e+00  7.1428518570766162e+00  7.1428517666727522e+00  7.1428516717535206e+00  7.1428515722328259e+00  7.1428514680205177e+00  7.1428513590223384e+00  7.1428512451398456e+00  7.1428511262703385e+00  7.1428510023067817e+00  7.1428508731377294e+00  7.1428507386472342e+00  7.1428505987147668e+00  7.1428504532151118e+00  7.1428503020182905e+00  7.1428501449894481e+00  7.1428499819887588e+00  7.1428498128713107e+00  7.1428496374870001e+00  7.1428494556804161e+00  7.1428492672907185e+00  7.1428490721515150e+00  7.1428488700907309e+00  7.1428486609304702e+00  7.1428484444868916e+00  7.1428482205700483e+00  7.1428479889837506e+00  7.1428477495254015e+00  7.1428475019858491e+00  7.1428472461492207e+00  7.1428469817927400e+00  7.1428467086865561e+00  7.1428464265935752e+00  7.1428461352692505e+00  7.1428458344614034e+00  7.1428455239100170e+00  7.1428452033470320e+00  7.1428448724961253e+00  7.1428445310725008e+00  7.1428441787826440e+00  7.1428438153241061e+00  7.1428434403852492e+00  7.1428430536449969e+00  7.1428426547725818e+00  7.1428422434272711e+00  7.1428418192581020e+00  7.1428413819035859e+00  7.1428409309914320e+00  7.1428404661382316e+00  7.1428399869491592e+00  7.1428394930176511e+00  7.1428389839250670e+00  7.1428384592403678e+00  7.1428379185197501e+00  7.1428373613063005e+00  7.1428367871296148e+00  7.1428361955054225e+00  7.1428355859351953e+00  7.1428349579057357e+00  7.1428343108887686e+00  7.1428336443405058e+00  7.1428329577012120e+00  7.1428322503947479e+00  7.1428315218280964e+00  7.1428307713908898e+00  7.1428299984549124e+00  7.1428292023735862e+00  7.1428283824814578e+00  7.1428275380936421e+00  7.1428266685052701e+00  7.1428257729909319e+00  7.1428248508040735e+00  7.1428239011763930e+00  7.1428229233172251e+00  7.1428219164128839e+00  7.1428208796260222e+00  7.1428198120949409e+00  7.1428187129328924e+00  7.1428175812273622e+00  7.1428164160393308e+00  7.1428152164025063e+00  7.1428139813225524e+00  7.1428127097762752e+00  7.1428114007107935e+00  7.1428100530426928e+00  7.1428086656571415e+00  7.1428072374069904e+00  7.1428057671118452e+00  7.1428042535571112e+00  7.1428026954930139e+00  7.1428010916335767e+00  7.1427994406555975e+00  7.1427977411975636e+00  7.1427959918585593e+00  7.1427941911971313e+00  7.1427923377301248e+00  7.1427904299314857e+00  7.1427884662310239e+00  7.1427864450131482e+00  7.1427843646155615e+00  7.1427822233279192e+00  7.1427800193904467e+00  7.1427777509925194e+00  7.1427754162712009e+00  7.1427730133097445e+00  7.1427705401360368e+00  7.1427679947210230e+00  7.1427653749770510e+00  7.1427626787562026e+00  7.1427599038485532e+00  7.1427570479803997e+00  7.1427541088124151e+00  7.1427510839377755e+00  7.1427479708802126e+00  7.1427447670920206e+00  7.1427414699520044e+00  7.1427380767633650e+00  7.1427345847515316e+00  7.1427309910619234e+00  7.1427272927576562e+00  7.1427234868171725e+00  7.1427195701318071e+00  7.1427155395032909e+00  7.1427113916411722e+00  7.1427071231601635e+00  7.1427027305774260e+00  7.1426982103097618e+00  7.1426935586707296e+00  7.1426887718676761e+00  7.1426838459986959e+00  7.1426787770494746e+00  7.1426735608900680e+00  7.1426681932715832e+00  7.1426626698227498e+00  7.1426569860464149e+00  7.1426511373159167e+00  7.1426451188713624e+00  7.1426389258158007e+00  7.1426325531112882e+00  7.1426259955748339e+00  7.1426192478742250e+00  7.1426123045237375e+00  7.1426051598797295e+00  7.1425978081361023e+00  7.1425902433196224e+00  7.1425824592851148e+00  7.1425744497105299e+00  7.1425662080918517e+00  7.1425577277378691e+00  7.1425490017647757e+00  7.1425400230906604e+00  7.1425307844297814e+00  7.1425212782867185e+00  7.1425114969503385e+00  7.1425014324875900e+00  7.1424910767371124e+00  7.1424804213026762e+00  7.1424694575464125e+00  7.1424581765818793e+00  7.1424465692668830e+00  7.1424346261961285e+00  7.1424223376936489e+00  7.1424096938050061e+00  7.1423966842892739e+00  7.1423832986107882e+00  7.1423695259306585e+00  7.1423553550980348e+00  7.1423407746411227e+00  7.1423257727579283e+00  7.1423103373067498e+00  7.1422944557963870e+00  7.1422781153760617e+00  7.1422613028250668e+00  7.1422440045420768e+00  7.1422262065341959e+00  7.1422078944056375e+00  7.1421890533461339e+00  7.1421696681189513e+00  7.1421497230485924e+00  7.1421292020081415e+00  7.1421080884062107e+00  7.1420863651735527e+00  7.1420640147492422e+00  7.1420410190664905e+00  7.1420173595380119e+00  7.1419930170409973e+00  7.1419679719016269e+00  7.1419422038791431e+00  7.1419156921494542e+00  7.1418884152882631e+00  7.1418603512536940e+00  7.1418314773684379e+00  7.1418017703013410e+00  7.1417712060484764e+00  7.1417397599136709e+00  7.1417074064884334e+00  7.1416741196313183e+00  7.1416398724466843e+00  7.1416046372628212e+00  7.1415683856094256e+00  7.1415310881944638e+00  7.1414927148802825e+00  7.1414532346590844e+00  7.1414126156276438e+00  7.1413708249612942e+00  7.1413278288871451e+00  7.1412835926565110e+00  7.1412380805165316e+00  7.1411912556809591e+00  7.1411430803000737e+00  7.1410935154297066e+00  7.1410425209993713e+00  7.1409900557794286e+00  7.1409360773472912e+00  7.1408805420526376e+00  7.1408234049815675e+00  7.1407646199197270e+00  7.1407041393143169e+00  7.1406419142349806e+00  7.1405778943335374e+00  7.1405120278025009e+00  7.1404442613323837e+00  7.1403745400677048e+00  7.1403028075617119e+00  7.1402290057297471e+00  7.1401530748011890e+00  7.1400749532700161e+00  7.1399945778438285e+00  7.1399118833913908e+00  7.1398268028885798e+00  7.1397392673627209e+00  7.1396492058352372e+00  7.1395565452626002e+00  7.1394612104754733e+00  7.1393631241160600e+00  7.1392622065735276e+00  7.1391583759175017e+00  7.1390515478295509e+00  7.1389416355325910e+00  7.1388285497181698e+00  7.1387121984715325e+00  7.1385924871944164e+00  7.1384693185255141e+00  7.1383425922584971e+00  7.1382122052575792e+00  7.1380780513704698e+00  7.1379400213386957e+00  7.1377980027051882e+00  7.1376518797190194e+00  7.1375015332372689e+00  7.1373468406238283e+00  7.1371876756451682e+00  7.1370239083628277e+00  7.1368554050226773e+00  7.1366820279407168e+00  7.1365036353853863e+00  7.1363200814562227e+00  7.1361312159587991e+00  7.1359368842757709e+00  7.1357369272339390e+00  7.1355311809671971e+00  7.1353194767752148e+00  7.1351016409777541e+00  7.1348774947644111e+00  7.1346468540397288e+00  7.1344095292634453e+00  7.1341653252857551e+00  7.1339140411774498e+00  7.1336554700546939e+00  7.1333893988983679e+00  7.1331156083676923e+00  7.1328338726080309e+00  7.1325439590526249e+00  7.1322456282181044e+00  7.1319386334935420e+00  7.1316227209228398e+00  7.1312976289802608e+00  7.1309630883388433e+00  7.1306188216314723e+00  7.1302645432043956e+00  7.1298999588628913e+00  7.1295247656088625e+00  7.1291386513700754e+00  7.1287412947207800e+00  7.1283323645934020e+00  7.1279115199810583e+00  7.1274784096305250e+00  7.1270326717254120e+00  7.1265739335591798e+00  7.1261018111976577e+00  7.1256159091307643e+00  7.1251158199129936e+00  7.1246011237923730e+00  7.1240713883274793e+00  7.1235261679920869e+00  7.1229650037670931e+00  7.1223874227192780e+00  7.1217929375664344e+00  7.1211810462284744e+00  7.1205512313639918e+00  7.1199029598918244e+00  7.1192356824971492e+00  7.1185488331215350e+00  7.1178418284364771e+00  7.1171140672998607e+00  7.1163649301947540e+00  7.1155937786500179e+00  7.1147999546420