<?xml version="1.0"?>
<VTKFile type="UnstructuredGrid"  version="0.1"  >
<UnstructuredGrid>
<Piece  NumberOfPoints="1001" NumberOfCells="1000">
<Points>
<DataArray  type="Float64"  NumberOfComponents="3"  format="ascii">0 0 0  0.001 0 0  0.002 0 0  0.003 0 0  0.004 0 0  0.005 0 0  0.006 0 0  0.007 0 0  0.008 0 0  0.008999999999999999 0 0  0.01 0 0  0.011 0 0  0.012 0 0  0.013 0 0  0.014 0 0  0.015 0 0  0.016 0 0  0.017 0 0  0.018 0 0  0.019 0 0  0.02 0 0  0.021 0 0  0.022 0 0  0.023 0 0  0.024 0 0  0.025 0 0  0.026 0 0  0.027 0 0  0.028 0 0  0.029 0 0  0.03 0 0  0.031 0 0  0.032 0 0  0.033 0 0  0.034 0 0  0.035 0 0  0.036 0 0  0.037 0 0  0.038 0 0  0.039 0 0  0.04 0 0  0.041 0 0  0.042 0 0  0.043 0 0  0.044 0 0  0.045 0 0  0.046 0 0  0.047 0 0  0.048 0 0  0.049 0 0  0.05 0 0  0.051 0 0  0.052 0 0  0.053 0 0  0.054 0 0  0.055 0 0  0.056 0 0  0.057 0 0  0.058 0 0  0.059 0 0  0.06 0 0  0.061 0 0  0.062 0 0  0.063 0 0  0.064 0 0  0.065 0 0  0.066 0 0  0.067 0 0  0.068 0 0  0.06900000000000001 0 0  0.07000000000000001 0 0  0.07099999999999999 0 0  0.07199999999999999 0 0  0.073 0 0  0.074 0 0  0.075 0 0  0.076 0 0  0.077 0 0  0.078 0 0  0.079 0 0  0.08 0 0  0.081 0 0  0.082 0 0  0.083 0 0  0.08400000000000001 0 0  0.08500000000000001 0 0  0.08599999999999999 0 0  0.08699999999999999 0 0  0.08799999999999999 0 0  0.089 0 0  0.09 0 0  0.091 0 0  0.092 0 0  0.093 0 0  0.094 0 0  0.095 0 0  0.096 0 0  0.097 0 0  0.098 0 0  0.099 0 0  0.1 0 0  0.101 0 0  0.102 0 0  0.103 0 0  0.104 0 0  0.105 0 0  0.106 0 0  0.107 0 0  0.108 0 0  0.109 0 0  0.11 0 0  0.111 0 0  0.112 0 0  0.113 0 0  0.114 0 0  0.115 0 0  0.116 0 0  0.117 0 0  0.118 0 0  0.119 0 0  0.12 0 0  0.121 0 0  0.122 0 0  0.123 0 0  0.124 0 0  0.125 0 0  0.126 0 0  0.127 0 0  0.128 0 0  0.129 0 0  0.13 0 0  0.131 0 0  0.132 0 0  0.133 0 0  0.134 0 0  0.135 0 0  0.136 0 0  0.137 0 0  0.138 0 0  0.139 0 0  0.14 0 0  0.141 0 0  0.142 0 0  0.143 0 0  0.144 0 0  0.145 0 0  0.146 0 0  0.147 0 0  0.148 0 0  0.149 0 0  0.15 0 0  0.151 0 0  0.152 0 0  0.153 0 0  0.154 0 0  0.155 0 0  0.156 0 0  0.157 0 0  0.158 0 0  0.159 0 0  0.16 0 0  0.161 0 0  0.162 0 0  0.163 0 0  0.164 0 0  0.165 0 0  0.166 0 0  0.167 0 0  0.168 0 0  0.169 0 0  0.17 0 0  0.171 0 0  0.172 0 0  0.173 0 0  0.174 0 0  0.175 0 0  0.176 0 0  0.177 0 0  0.178 0 0  0.179 0 0  0.18 0 0  0.181 0 0  0.182 0 0  0.183 0 0  0.184 0 0  0.185 0 0  0.186 0 0  0.187 0 0  0.188 0 0  0.189 0 0  0.19 0 0  0.191 0 0  0.192 0 0  0.193 0 0  0.194 0 0  0.195 0 0  0.196 0 0  0.197 0 0  0.198 0 0  0.199 0 0  0.2 0 0  0.201 0 0  0.202 0 0  0.203 0 0  0.204 0 0  0.205 0 0  0.206 0 0  0.207 0 0  0.208 0 0  0.209 0 0  0.21 0 0  0.211 0 0  0.212 0 0  0.213 0 0  0.214 0 0  0.215 0 0  0.216 0 0  0.217 0 0  0.218 0 0  0.219 0 0  0.22 0 0  0.221 0 0  0.222 0 0  0.223 0 0  0.224 0 0  0.225 0 0  0.226 0 0  0.227 0 0  0.228 0 0  0.229 0 0  0.23 0 0  0.231 0 0  0.232 0 0  0.233 0 0  0.234 0 0  0.235 0 0  0.236 0 0  0.237 0 0  0.238 0 0  0.239 0 0  0.24 0 0  0.241 0 0  0.242 0 0  0.243 0 0  0.244 0 0  0.245 0 0  0.246 0 0  0.247 0 0  0.248 0 0  0.249 0 0  0.25 0 0  0.251 0 0  0.252 0 0  0.253 0 0  0.254 0 0  0.255 0 0  0.256 0 0  0.257 0 0  0.258 0 0  0.259 0 0  0.26 0 0  0.261 0 0  0.262 0 0  0.263 0 0  0.264 0 0  0.265 0 0  0.266 0 0  0.267 0 0  0.268 0 0  0.269 0 0  0.27 0 0  0.271 0 0  0.272 0 0  0.273 0 0  0.274 0 0  0.275 0 0  0.276 0 0  0.277 0 0  0.278 0 0  0.279 0 0  0.28 0 0  0.281 0 0  0.282 0 0  0.283 0 0  0.284 0 0  0.285 0 0  0.286 0 0  0.287 0 0  0.288 0 0  0.289 0 0  0.29 0 0  0.291 0 0  0.292 0 0  0.293 0 0  0.294 0 0  0.295 0 0  0.296 0 0  0.297 0 0  0.298 0 0  0.299 0 0  0.3 0 0  0.301 0 0  0.302 0 0  0.303 0 0  0.304 0 0  0.305 0 0  0.306 0 0  0.307 0 0  0.308 0 0  0.309 0 0  0.31 0 0  0.311 0 0  0.312 0 0  0.313 0 0  0.314 0 0  0.315 0 0  0.316 0 0  0.317 0 0  0.318 0 0  0.319 0 0  0.32 0 0  0.321 0 0  0.322 0 0  0.323 0 0  0.324 0 0  0.325 0 0  0.326 0 0  0.327 0 0  0.328 0 0  0.329 0 0  0.33 0 0  0.331 0 0  0.332 0 0  0.333 0 0  0.334 0 0  0.335 0 0  0.336 0 0  0.337 0 0  0.338 0 0  0.339 0 0  0.34 0 0  0.341 0 0  0.342 0 0  0.343 0 0  0.344 0 0  0.345 0 0  0.346 0 0  0.347 0 0  0.348 0 0  0.349 0 0  0.35 0 0  0.351 0 0  0.352 0 0  0.353 0 0  0.354 0 0  0.355 0 0  0.356 0 0  0.357 0 0  0.358 0 0  0.359 0 0  0.36 0 0  0.361 0 0  0.362 0 0  0.363 0 0  0.364 0 0  0.365 0 0  0.366 0 0  0.367 0 0  0.368 0 0  0.369 0 0  0.37 0 0  0.371 0 0  0.372 0 0  0.373 0 0  0.374 0 0  0.375 0 0  0.376 0 0  0.377 0 0  0.378 0 0  0.379 0 0  0.38 0 0  0.381 0 0  0.382 0 0  0.383 0 0  0.384 0 0  0.385 0 0  0.386 0 0  0.387 0 0  0.388 0 0  0.389 0 0  0.39 0 0  0.391 0 0  0.392 0 0  0.393 0 0  0.394 0 0  0.395 0 0  0.396 0 0  0.397 0 0  0.398 0 0  0.399 0 0  0.4 0 0  0.401 0 0  0.402 0 0  0.403 0 0  0.404 0 0  0.405 0 0  0.406 0 0  0.407 0 0  0.408 0 0  0.409 0 0  0.41 0 0  0.411 0 0  0.412 0 0  0.413 0 0  0.414 0 0  0.415 0 0  0.416 0 0  0.417 0 0  0.418 0 0  0.419 0 0  0.42 0 0  0.421 0 0  0.422 0 0  0.423 0 0  0.424 0 0  0.425 0 0  0.426 0 0  0.427 0 0  0.428 0 0  0.429 0 0  0.43 0 0  0.431 0 0  0.432 0 0  0.433 0 0  0.434 0 0  0.435 0 0  0.436 0 0  0.437 0 0  0.438 0 0  0.439 0 0  0.44 0 0  0.441 0 0  0.442 0 0  0.443 0 0  0.444 0 0  0.445 0 0  0.446 0 0  0.447 0 0  0.448 0 0  0.449 0 0  0.45 0 0  0.451 0 0  0.452 0 0  0.453 0 0  0.454 0 0  0.455 0 0  0.456 0 0  0.457 0 0  0.458 0 0  0.459 0 0  0.46 0 0  0.461 0 0  0.462 0 0  0.463 0 0  0.464 0 0  0.465 0 0  0.466 0 0  0.467 0 0  0.468 0 0  0.469 0 0  0.47 0 0  0.471 0 0  0.472 0 0  0.473 0 0  0.474 0 0  0.475 0 0  0.476 0 0  0.477 0 0  0.478 0 0  0.479 0 0  0.48 0 0  0.481 0 0  0.482 0 0  0.483 0 0  0.484 0 0  0.485 0 0  0.486 0 0  0.487 0 0  0.488 0 0  0.489 0 0  0.49 0 0  0.491 0 0  0.492 0 0  0.493 0 0  0.494 0 0  0.495 0 0  0.496 0 0  0.497 0 0  0.498 0 0  0.499 0 0  0.5 0 0  0.501 0 0  0.502 0 0  0.503 0 0  0.504 0 0  0.505 0 0  0.506 0 0  0.507 0 0  0.508 0 0  0.509 0 0  0.51 0 0  0.511 0 0  0.512 0 0  0.513 0 0  0.514 0 0  0.515 0 0  0.516 0 0  0.517 0 0  0.518 0 0  0.519 0 0  0.52 0 0  0.521 0 0  0.522 0 0  0.523 0 0  0.524 0 0  0.525 0 0  0.526 0 0  0.527 0 0  0.528 0 0  0.529 0 0  0.53 0 0  0.531 0 0  0.532 0 0  0.533 0 0  0.534 0 0  0.535 0 0  0.536 0 0  0.537 0 0  0.538 0 0  0.539 0 0  0.54 0 0  0.541 0 0  0.542 0 0  0.543 0 0  0.544 0 0  0.545 0 0  0.546 0 0  0.547 0 0  0.548 0 0  0.549 0 0  0.55 0 0  0.551 0 0  0.552 0 0  0.553 0 0  0.554 0 0  0.555 0 0  0.556 0 0  0.5570000000000001 0 0  0.5580000000000001 0 0  0.5590000000000001 0 0  0.5600000000000001 0 0  0.5610000000000001 0 0  0.5620000000000001 0 0  0.5629999999999999 0 0  0.5639999999999999 0 0  0.5649999999999999 0 0  0.5659999999999999 0 0  0.5669999999999999 0 0  0.5679999999999999 0 0  0.569 0 0  0.57 0 0  0.571 0 0  0.572 0 0  0.573 0 0  0.574 0 0  0.575 0 0  0.576 0 0  0.577 0 0  0.578 0 0  0.579 0 0  0.58 0 0  0.581 0 0  0.582 0 0  0.583 0 0  0.584 0 0  0.585 0 0  0.586 0 0  0.587 0 0  0.588 0 0  0.589 0 0  0.59 0 0  0.591 0 0  0.592 0 0  0.593 0 0  0.594 0 0  0.595 0 0  0.596 0 0  0.597 0 0  0.598 0 0  0.599 0 0  0.6 0 0  0.601 0 0  0.602 0 0  0.603 0 0  0.604 0 0  0.605 0 0  0.606 0 0  0.607 0 0  0.608 0 0  0.609 0 0  0.61 0 0  0.611 0 0  0.612 0 0  0.613 0 0  0.614 0 0  0.615 0 0  0.616 0 0  0.617 0 0  0.618 0 0  0.619 0 0  0.62 0 0  0.621 0 0  0.622 0 0  0.623 0 0  0.624 0 0  0.625 0 0  0.626 0 0  0.627 0 0  0.628 0 0  0.629 0 0  0.63 0 0  0.631 0 0  0.632 0 0  0.633 0 0  0.634 0 0  0.635 0 0  0.636 0 0  0.637 0 0  0.638 0 0  0.639 0 0  0.64 0 0  0.641 0 0  0.642 0 0  0.643 0 0  0.644 0 0  0.645 0 0  0.646 0 0  0.647 0 0  0.648 0 0  0.649 0 0  0.65 0 0  0.651 0 0  0.652 0 0  0.653 0 0  0.654 0 0  0.655 0 0  0.656 0 0  0.657 0 0  0.658 0 0  0.659 0 0  0.66 0 0  0.661 0 0  0.662 0 0  0.663 0 0  0.664 0 0  0.665 0 0  0.666 0 0  0.667 0 0  0.668 0 0  0.669 0 0  0.67 0 0  0.671 0 0  0.672 0 0  0.673 0 0  0.674 0 0  0.675 0 0  0.676 0 0  0.677 0 0  0.678 0 0  0.679 0 0  0.68 0 0  0.681 0 0  0.6820000000000001 0 0  0.6830000000000001 0 0  0.6840000000000001 0 0  0.6850000000000001 0 0  0.6860000000000001 0 0  0.6870000000000001 0 0  0.6879999999999999 0 0  0.6889999999999999 0 0  0.6899999999999999 0 0  0.6909999999999999 0 0  0.6919999999999999 0 0  0.6929999999999999 0 0  0.694 0 0  0.695 0 0  0.696 0 0  0.697 0 0  0.698 0 0  0.699 0 0  0.7 0 0  0.701 0 0  0.702 0 0  0.703 0 0  0.704 0 0  0.705 0 0  0.706 0 0  0.707 0 0  0.708 0 0  0.709 0 0  0.71 0 0  0.711 0 0  0.712 0 0  0.713 0 0  0.714 0 0  0.715 0 0  0.716 0 0  0.717 0 0  0.718 0 0  0.719 0 0  0.72 0 0  0.721 0 0  0.722 0 0  0.723 0 0  0.724 0 0  0.725 0 0  0.726 0 0  0.727 0 0  0.728 0 0  0.729 0 0  0.73 0 0  0.731 0 0  0.732 0 0  0.733 0 0  0.734 0 0  0.735 0 0  0.736 0 0  0.737 0 0  0.738 0 0  0.739 0 0  0.74 0 0  0.741 0 0  0.742 0 0  0.743 0 0  0.744 0 0  0.745 0 0  0.746 0 0  0.747 0 0  0.748 0 0  0.749 0 0  0.75 0 0  0.751 0 0  0.752 0 0  0.753 0 0  0.754 0 0  0.755 0 0  0.756 0 0  0.757 0 0  0.758 0 0  0.759 0 0  0.76 0 0  0.761 0 0  0.762 0 0  0.763 0 0  0.764 0 0  0.765 0 0  0.766 0 0  0.767 0 0  0.768 0 0  0.769 0 0  0.77 0 0  0.771 0 0  0.772 0 0  0.773 0 0  0.774 0 0  0.775 0 0  0.776 0 0  0.777 0 0  0.778 0 0  0.779 0 0  0.78 0 0  0.781 0 0  0.782 0 0  0.783 0 0  0.784 0 0  0.785 0 0  0.786 0 0  0.787 0 0  0.788 0 0  0.789 0 0  0.79 0 0  0.791 0 0  0.792 0 0  0.793 0 0  0.794 0 0  0.795 0 0  0.796 0 0  0.797 0 0  0.798 0 0  0.799 0 0  0.8 0 0  0.801 0 0  0.802 0 0  0.803 0 0  0.804 0 0  0.805 0 0  0.806 0 0  0.8070000000000001 0 0  0.8080000000000001 0 0  0.8090000000000001 0 0  0.8100000000000001 0 0  0.8110000000000001 0 0  0.8120000000000001 0 0  0.8129999999999999 0 0  0.8139999999999999 0 0  0.8149999999999999 0 0  0.8159999999999999 0 0  0.8169999999999999 0 0  0.8179999999999999 0 0  0.819 0 0  0.82 0 0  0.821 0 0  0.822 0 0  0.823 0 0  0.824 0 0  0.825 0 0  0.826 0 0  0.827 0 0  0.828 0 0  0.829 0 0  0.83 0 0  0.831 0 0  0.832 0 0  0.833 0 0  0.834 0 0  0.835 0 0  0.836 0 0  0.837 0 0  0.838 0 0  0.839 0 0  0.84 0 0  0.841 0 0  0
[...]
<PointData  Scalars="f_20-0"> 
<DataArray  type="Float64"  Name="f_20-0"  format="ascii">2.0000000001068114e+00  2.0000000001081149e+00  2.0000000001120544e+00  2.0000000001187201e+00  2.0000000001282667e+00  2.0000000001409131e+00  2.0000000001569491e+00  2.0000000001767431e+00  2.0000000002007461e+00  2.0000000002295044e+00  2.0000000002636718e+00  2.0000000003040213e+00  2.0000000003514602e+00  2.0000000004070571e+00  2.0000000004720535e+00  2.0000000005478982e+00  2.0000000006362733e+00  2.0000000007391301e+00  2.0000000008587322e+00  2.0000000009976988e+00  2.0000000011590586e+00  2.0000000013463120e+00  2.0000000015635035e+00  2.0000000018153048e+00  2.0000000021071020e+00  2.0000000024451112e+00  2.0000000028364990e+00  2.0000000032895238e+00  2.0000000038136969e+00  2.0000000044199737e+00  2.0000000051209668e+00  2.0000000059311853e+00  2.0000000068673209e+00  2.0000000079485671e+00  2.0000000091969827e+00  2.0000000106379150e+00  2.0000000123004762e+00  2.0000000142180916e+00  2.0000000164291278e+00  2.0000000189776030e+00  2.0000000219140026e+00  2.0000000252962087e+00  2.0000000291905615e+00  2.0000000336730648e+00  2.0000000388307626e+00  2.0000000447633082e+00  2.0000000515847507e+00  2.0000000594255654e+00  2.0000000684349661e+00  2.0000000787835326e+00  2.0000000906662003e+00  2.0000001043056597e+00  2.0000001199562081e+00  2.0000001379081405e+00  2.0000001584927132e+00  2.0000001820877920e+00  2.0000002091242512e+00  2.0000002400932297e+00  2.0000002755543544e+00  2.0000003161450541e+00  2.0000003625911096e+00  2.0000004157185987e+00  2.0000004764674029e+00  2.0000005459064947e+00  2.0000006252512144e+00  2.0000007158828015e+00  2.0000008193704528e+00  2.0000009374962393e+00  2.0000010722832244e+00  2.0000012260272011e+00  2.0000014013324772e+00  2.0000016011522317e+00  2.0000018288339820e+00  2.0000020881708220e+00  2.0000023834590950e+00  2.0000027195633328e+00  2.0000031019893028e+00  2.0000035369661733e+00  2.0000040315388703e+00  2.0000045936718700e+00  2.0000052323657775e+00  2.0000059577882174e+00  2.0000067814207383e+00  2.0000077162236032e+00  2.0000087768205788e+00  2.0000099797060553e+00  2.0000113434771016e+00  2.0000128890933326e+00  2.0000146401678074e+00  2.0000166232925141e+00  2.0000188684023978e+00  2.0000214091823070e+00  2.0000242835217223e+00  2.0000275340226503e+00  2.0000312085666296e+00  2.0000353609474617e+00  2.0000400515769412e+00  2.0000453482716560e+00  2.0000513271297482e+00  2.0000580735074793e+00  2.0000656831064401e+00  2.0000742631833450e+00  2.0000839338956071e+00  2.0000948297971961e+00  2.0001071015007366e+00  2.0001209175234016e+00  2.0001364663359142e+00  2.0001539586358157e+00  2.0001736298682711e+00  2.0001957430198929e+00  2.0002205917135027e+00  2.0002485036344169e+00  2.0002798443216898e+00  2.0003150213608514e+00  2.0003544890180454e+00  2.0003987533590744e+00  2.0004483779007813e+00  2.0005039898463735e+00  2.0005662869608192e+00  2.0006360451472522e+00  2.0007141267905038e+00  2.0008014899393660e+00  2.0008991984050351e+00  2.0010084328594129e+00  2.0011305030234601e+00  2.0012668610427071e+00  2.0014191161542585e+00  2.0015890507571217e+00  2.0017786380055234e+00  2.0019900610528922e+00  2.0022257340823626e+00  2.0024883252679624e+00  2.0027807818188861e+00  2.0031063572673773e+00  2.0034686411686038e+00  2.0038715913881893e+00  2.0043195691597147e+00  2.0048173771000988e+00  2.0053703003750138e+00  2.0059841512090109e+00  2.0066653169353121e+00  2.0074208117777559e+00  2.0082583325514300e+00  2.0091863184584295e+00  2.0102140151399928e+00  2.0113515431250204e+00  2.0126099707865408e+00  2.0140013918807420e+00  2.0155390076963329e+00  2.0172372137835999e+00  2.0191116911608993e+00  2.0211795018095131e+00  2.0234591881638671e+00  2.0259708761809478e+00  2.0287363814282307e+00  2.0317793174615364e+00  2.0351252055709899e+00  2.0388015847531049e+00  2.0428381205187023e+00  2.0472667108694571e+00  2.0521215874707646e+00  2.0574394097169209e+00  2.0632593490296496e+00  2.0696231603579647e+00  2.0765752374638229e+00  2.0841626481945630e+00  2.0924351455733849e+00  2.1014451502003864e+00  2.1112476991702649e+00  2.1219003565035419e+00  2.1334630799849736e+00  2.1459980393373703e+00  2.1595693808654519e+00  2.1742429341169109e+00  2.1900858567596955e+00  2.2071662147943933e+00  2.2255524964295925e+00  2.2453130594566479e+00  2.2665155137633741e+00  2.2892260427004358e+00  2.3135086693144311e+00  2.3394244759188227e+00  2.3670307879949140e+00  2.3963803358845581e+00  2.4275204100206893e+00  2.4604920273964437e+00  2.4953291284522021e+00  2.5320578244256677e+00  2.5706957153481178e+00  2.6112512981999507e+00  2.6537234832243732e+00  2.6981012340561801e+00  2.7443633442244741e+00  2.7924783588593343e+00  2.8424046462443604e+00  2.8940906194159002e+00  2.9474751035408513e+00  3.0024878405348132e+00  3.0590501185219461e+00  3.1170755104661700e+00  3.1764707037556748e+00  3.2371364007829011e+00  3.2989682696603881e+00  3.3618579241272859e+00  3.4256939123656469e+00  3.4903626957575735e+00  3.5557496004477356e+00  3.6217397267919833e+00  3.6882188042309512e+00  3.7550739816949465e+00  3.8221945462043454e+00  3.8894725647791826e+00  3.9568034470350724e+00  4.0240864278647859e+00  4.0912249713514237e+00  4.1581270985143464e+00  4.2247056426530154e+00  4.2908784369387130e+00  4.3565684395312809e+00  4.4217038018946653e+00  4.4862178861820032e+00  4.5500492375898007e+00  4.6131415174729371e+00  4.6754434027969003e+00  4.7369084572077744e+00  4.7974949786477419e+00  4.8571658280543648e+00  4.9158882432729634e+00  4.9736336418964964e+00  5.0303774163379824e+00  5.0860987240442217e+00  5.1407802753834861e+00  5.1944081213871209e+00  5.2469714431993655e+00  5.2984623447913783e+00  5.3488756502258710e+00  5.3982087065167859e+00  5.4464611929132882e+00  5.4936349372479771e+00  5.5397337398233537e+00  5.5847632051669542e+00  5.6287305818620963e+00  5.6716446105558633e+00  5.7135153801572391e+00  5.7543541921640244e+00  5.7941734329961445e+00  5.8329864541631053e+00  5.8708074600536797e+00  5.9076514031048157e+00  5.9435338860832383e+00  5.9784710711960747e+00  6.0124795957352442e+00  6.0455764939533010e+00  6.0777791248654163e+00  6.1091051056722803e+00  6.1395722505015300e+00  6.1691985141703682e+00  6.1980019406786946e+00  6.2260006161502677e+00  6.2532126259485281e+00  6.2796560157037291e+00  6.3053487559984616e+00  6.3303087104696436e+00  6.3545536070959825e+00  6.3781010124512063e+00  6.4009683087143774e+00  6.4231726732395886e+00  6.4447310604981087e+00  6.4656601862165202e+00  6.4859765135446619e+00  6.5056962410968788e+00  6.5248352927197466e+00  6.5434093088483856e+00  6.5614336393222654e+00  6.5789233375396448e+00  6.5958931558377865e+00  6.6123575419934459e+00  6.6283306367453889e+00  6.6438262722473924e+00  6.6588579713664240e+00  6.6734389477469076e+00  6.6875821065674392e+00  6.7013000459217498e+00  6.7146050587606796e+00  6.7275091353365957e+00  6.7400239660961079e+00  6.7521609449710613e+00  6.7639311730216320e+00  6.7753454623889127e+00  6.7864143405178528e+00  6.7971480546144241e+00  6.8075565763039236e+00  6.8176496064599998e+00  6.8274365801765482e+00  6.8369266718570048e+00  6.8461288003977039e+00  6.8550516344441244e+00  6.8637035977006198e+00  6.8720928742760909e+00  6.8802274140496493e+00  6.8881149380417952e+00  6.8957629437781334e+00  6.9031787106338403e+00  6.9103693051483708e+00  6.9173415863009460e+00  6.9241022107384236e+00  6.9306576379480518e+00  6.9370141353685399e+00  6.9431777834335646e+00  6.9491544805427301e+00  6.9549499479554653e+00  6.9605697346041762e+00  6.9660192218233465e+00  6.9713036279919276e+00  6.9764280130867968e+00  6.9813972831454336e+00  6.9862161946364658e+00  6.9908893587370002e+00  6.9954212455160345e+00  6.9998161880235124e+00  7.0040783862848670e+00  7.0082119112011503e+00  7.0122207083549881e+00  7.0161086017229355e+00  7.0198792972948167e+00  7.0235363866009228e+00  7.0270833501479970e+00  7.0305235607651095e+00  7.0338602868605857e+00  7.0370966955912682e+00  7.0402358559455029e+00  7.0432807417412295e+00  7.0462342345407194e+00  7.0490991264834504e+00  7.0518781230387590e+00  7.0545738456797995e+00  7.0571888344805318e+00  7.0597255506373608e+00  7.0621863789170778e+00  7.0645736300328261e+00  7.0668895429497711e+00  7.0691362871221015e+00  7.0713159646631061e+00  7.0734306124499851e+00  7.0754822041649899e+00  7.0774726522746123e+00  7.0794038099484116e+00  7.0812774729190808e+00  7.0830953812853457e+00  7.0848592212592498e+00  7.0865706268593902e+00  7.0882311815515537e+00  7.0898424198383081e+00  7.0914058287989556e+00  7.0929228495813037e+00  7.0943948788466251e+00  7.0958232701692001e+00  7.0972093353917796e+00  7.0985543459382532e+00  7.0998595340848372e+00  7.1011260941909802e+00  7.1023551838912669e+00  7.1035479252494680e+00  7.1047054058759054e+00  7.1058286800092265e+00  7.1069187695637659e+00  7.1079766651434921e+00  7.1090033270236024e+00  7.1099996861007817e+00  7.1109666448131081e+00  7.1119050780305635e+00  7.1128158339170877e+00  7.1136997347650279e+00  7.1145575778029597e+00  7.1153901359776102e+00  7.1161981587108203e+00  7.1169823726322887e+00  7.1177434822888488e+00  7.1184821708311228e+00  7.1191991006782098e+00  7.1198949141611250e+00  7.1205702341457222e+00  7.1212256646357188e+00  7.1218617913564817e+00  7.1224791823202409e+00  7.1230783883732469e+00  7.1236599437255750e+00  7.1242243664640403e+00  7.1247721590488347e+00  7.1253038087944072e+00  7.1258197883350975e+00  7.1263205560760241e+00  7.1268065566297070e+00  7.1272782212389103e+00  7.1277359681861236e+00  7.1281802031901780e+00  7.1286113197903385e+00  7.1290296997183580e+00  7.1294357132588599e+00  7.1298297195984182e+00  7.1302120671637219e+00  7.1305830939492001e+00  7.1309431278344073e+00  7.1312924868915504e+00  7.1316314796834588e+00  7.1319604055522987e+00  7.1322795548993749e+00  7.1325892094562713e+00  7.1328896425476387e+00  7.1331811193458812e+00  7.1334638971180491e+00  7.1337382254651267e+00  7.1340043465540388e+00  7.1342624953425515e+00  7.1345128997973504e+00  7.1347557811054783e+00  7.1349913538793999e+00  7.1352198263558302e+00  7.1354414005886397e+00  7.1356562726359059e+00  7.1358646327414181e+00  7.1360666655107536e+00  7.1362625500821224e+00  7.1364524602921593e+00  7.1366365648368237e+00  7.1368150274275717e+00  7.1369880069429481e+00  7.1371556575757662e+00  7.1373181289759779e+00  7.1374755663894209e+00  7.1376281107925017e+00  7.1377758990230280e+00  7.1379190639071934e+00  7.1380577343829064e+00  7.1381920356195119e+00  7.1383220891340082e+00  7.1384480129038481e+00  7.1385699214763605e+00  7.1386879260749172e+00  7.1388021347018178e+00  7.1389126522380266e+00  7.1390195805397241e+00  7.1391230185317784e+00  7.1392230622980950e+00  7.1393198051689133e+00  7.1394133378050588e+00  7.1395037482791341e+00  7.1395911221537247e+00  7.1396755425565459e+00  7.1397570902525995e+00  7.1398358437133265e+00  7.1399118791827796e+00  7.1399852707408051e+00  7.1400560903632675e+00  7.1401244079793456e+00  7.1401902915259141e+00  7.1402538069990360e+00  7.1403150185026396e+00  7.1403739882943755e+00  7.1404307768287749e+00  7.1404854427976936e+00  7.1405380431681893e+00  7.1405886332178525e+00  7.1406372665676834e+00  7.1406839952126466e+00  7.1407288695499487e+00  7.1407719384051553e+00  7.1408132490562766e+00  7.1408528472558901e+00  7.1408907772514389e+00  7.1409270818038157e+00  7.1409618022043109e+00  7.1409949782901068e+00  7.1410266484583236e+00  7.1410568496788374e+00  7.1410856175058743e+00  7.1411129860885492e+00  7.1411389881804004e+00  7.1411636551480413e+00  7.1411870169789742e+00  7.1412091022886894e+00  7.1412299383270907e+00  7.1412495509843037e+00  7.1412679647959632e+00  7.1412852029480058e+00  7.1413012872810189e+00  7.1413162382941859e+00  7.1413300751488729e+00  7.1413428156718908e+00  7.1413544763584378e+00  7.1413650723747679e+00  7.1413746175606070e+00  7.1413831244313064e+00  7.1413906041797661e+00  7.1413970666781488e+00  7.1414025204793612e+00  7.1414069728183218e+00  7.1414104296130665e+00  7.1414128954656020e+00  7.1414143736625961e+00  7.1414148661758512e+00  7.1414143736625988e+00  7.1414128954656073e+00  7.1414104296130718e+00  7.1414069728183254e+00  7.1414025204793612e+00  7.1413970666781497e+00  7.1413906041797688e+00  7.1413831244313055e+00  7.1413746175606070e+00  7.1413650723747670e+00  7.1413544763584378e+00  7.1413428156718917e+00  7.1413300751488755e+00  7.1413162382941868e+00  7.1413012872810171e+00  7.1412852029480032e+00  7.1412679647959605e+00  7.1412495509843028e+00  7.1412299383270907e+00  7.1412091022886894e+00  7.1411870169789733e+00  7.1411636551480404e+00  7.1411389881804004e+00  7.1411129860885483e+00  7.1410856175058717e+00  7.1410568496788338e+00  7.1410266484583200e+00  7.1409949782901014e+00  7.1409618022043082e+00  7.1409270818038131e+00  7.1408907772514381e+00  7.1408528472558892e+00  7.1408132490562766e+00  7.1407719384051553e+00  7.1407288695499469e+00  7.1406839952126457e+00  7.1406372665676825e+00  7.1405886332178525e+00  7.1405380431681928e+00  7.1404854427976945e+00  7.1404307768287740e+00  7.1403739882943773e+00  7.1403150185026414e+00  7.1402538069990404e+00  7.1401902915259168e+00  7.1401244079793482e+00  7.1400560903632666e+00  7.1399852707408042e+00  7.1399118791827805e+00  7.1398358437133265e+00  7.1397570902526004e+00  7.1396755425565468e+00  7.1395911221537247e+00  7.1395037482791333e+00  7.1394133378050579e+00  7.1393198051689142e+00  7.1392230622980959e+00  7.1391230185317784e+00  7.1390195805397241e+00  7.1389126522380240e+00  7.1388021347018169e+00  7.1386879260749181e+00  7.1385699214763596e+00  7.1384480129038490e+00  7.1383220891340082e+00  7.1381920356195110e+00  7.1380577343829064e+00  7.1379190639071943e+00  7.1377758990230289e+00  7.1376281107925026e+00  7.1374755663894236e+00  7.1373181289759815e+00  7.1371556575757680e+00  7.1369880069429499e+00  7.1368150274275735e+00  7.1366365648368255e+00  7.1364524602921584e+00  7.1362625500821215e+00  7.1360666655107519e+00  7.1358646327414164e+00  7.1356562726359041e+00  7.1354414005886397e+00  7.1352198263558311e+00  7.1349913538793963e+00  7.1347557811054756e+00  7.1345128997973450e+00  7.1342624953425489e+00  7.1340043465540353e+00  7.1337382254651258e+00  7.1334638971180482e+00  7.1331811193458794e+00  7.1328896425476351e+00  7.1325892094562713e+00  7.1322795548993740e+00  7.1319604055522987e+00  7.1316314796834597e+00  7.1312924868915522e+00  7.1309431278344055e+00  7.1305830939491974e+00  7.1302120671637184e+00  7.1298297195984155e+00  7.1294357132588555e+00  7.1290296997183553e+00  7.1286113197903376e+00  7.1281802031901771e+00  7.1277359681861228e+00  7.1272782212389050e+00  7.1268065566297052e+00  7.1263205560760223e+00  7.1258197883350967e+00  7.1253038087944072e+00  7.1247721590488355e+00  7.1242243664640439e+00  7.1236599437255776e+00  7.1230783883732460e+00  7.1224791823202409e+00  7.1218617913564852e+00  7.1212256646357224e+00  7.1205702341457302e+00  7.1198949141611321e+00  7.1191991006782160e+00  7.1184821708311254e+00  7.1177434822888497e+00  7.1169823726322887e+00  7.1161981587108230e+00  7.1153901359776119e+00  7.1145575778029606e+00  7.1136997347650306e+00  7.1128158339170886e+00  7.1119050780305626e+00  7.1109666448131037e+00  7.1099996861007790e+00  7.1090033270236033e+00  7.1079766651434930e+00  7.1069187695637650e+00  7.1058286800092239e+00  7.1047054058759080e+00  7.1035479252494698e+00  7.1023551838912669e+00  7.1011260941909775e+00  7.0998595340848398e+00  7.0985543459382550e+00  7.0972093353917804e+00  7.0958232701692001e+00  7.0943948788466216e+00  7.0929228495813037e+00  7.0914058287989548e+00  7.0898424198383072e+00  7.0882311815515555e+00  7.0865706268593911e+00  7.0848592212592516e+00  7.0830953812853457e+00  7.0812774729190826e+00  7.0794038099484133e+00  7.0774726522746132e+00  7.0754822041649934e+00  7.0734306124499922e+00  7.0713159646631105e+00  7.0691362871221024e+00  7.0668895429497738e+00  7.0645736300328297e+00  7.0621863789170778e+00  7.0597255506373608e+00  7.0571888344805336e+00  7.0545738456797995e+00  7.0518781230387599e+00  7.0490991264834495e+00  7.0462342345407167e+00  7.0432807417412304e+00  7.0402358559455021e+00  7.0370966955912664e+00  7.0338602868605848e+00  7.0305235607651086e+00  7.0270833501479952e+00  7.0235363866009219e+00  7.0198792972948185e+00  7.0161086017229373e+00  7.0122207083549890e+00  7.0082119112011494e+00  7.0040783862848670e+00  6.9998161880235115e+00  6.9954212455160363e+00  6.9908893587370047e+00  6.9862161946364694e+00  6.9813972831454363e+00  6.9764280130867986e+00  6.9713036279919267e+00  6.9660192218233465e+00  6.9605697346041771e+00  6.9549499479554653e+00  6.9491544805427301e+00  6.9431777834335673e+00  6.9370141353685399e+00  6.9306576379480580e+00  6.9241022107384280e+00  6.9173415863009495e+00  6.9103693051483717e+00  6.9031787106338403e+00  6.8957629437781351e+00  6.8881149380417979e+00  6.8802274140496520e+00  6.8720928742760927e+00  6.8637035977006198e+00  6.8550516344441261e+00  6.8461288003977074e+00  6.8369266718570056e+00  6.8274365801765482e+00  6.8176496064599998e+00  6.8075565763039236e+00  6.7971480546144250e+00  6.7864143405178545e+00  6.7753454623889144e+00  6.7639311730216338e+00  6.7521609449710640e+00  6.7400239660961088e+00  6.7275091353365974e+00  6.7146050587606849e+00  6.7013000459217515e+00  6.6875821065674446e+00  6.6734389477469129e+00  6.6588579713664293e+00  6.6438262722473951e+00  6.6283306367453951e+00  6.6123575419934459e+00  6.5958931558377909e+00  6.5789233375396474e+00  6.5614336393222654e+00  6.5434093088483873e+00  6.5248352927197475e+00  6.5056962410968806e+00  6.4859765135446628e+00  6.4656601862165237e+00  6.4447310604981087e+00  6.4231726732395904e+00  6.4009683087143818e+00  6.3781010124512099e+00  6.3545536070959869e+00  6.3303087104696498e+00  6.3053487559984660e+00  6.2796560157037291e+00  6.2532126259485272e+00  6.2260006161502695e+00  6.1980019406786981e+00  6.1691985141703709e+00  6.1395722505015300e+00  6.1091051056722820e+00  6.0777791248654198e+00  6.0455764939533037e+00  6.0124795957352459e+00  5.9784710711960773e+00  5.9435338860832383e+00  5.9076514031048175e+00  5.8708074600536824e+00  5.8329864541631080e+00  5.7941734329961463e+00  5.7543541921640253e+00  5.7135153801572400e+00  5.6716446105558651e+00  5.6287305818620972e+00  5.5847632051669569e+00  5.5397337398233581e+00  5.4936349372479816e+00  5.4464611929132927e+00  5.3982087065167903e+00  5.3488756502258781e+00  5.2984623447913810e+00  5.2469714431993699e+00  5.1944081213871263e+00  5.1407802753834888e+00  5.0860987240442297e+00  5.0303774163379869e+00  4.9736336418965026e+00  4.9158882432729687e+00  4.8571658280543701e+00  4.7974949786477419e+00  4.7369084572077744e+00  4.6754434027969021e+00  4.6131415174729371e+00  4.5500492375898007e+00  4.4862178861820059e+00  4.4217038018946688e+00  4.3565684395312827e+00  4.2908784369387174e+00  4.2247056426530216e+00  4.1581270985143517e+00  4.0912249713514282e+00  4.0240864278647894e+00  3.9568034470350746e+00  3.8894725647791857e+00  3.8221945462043472e+00  3.7550739816949474e+00  3.6882188042309529e+00  3.6217397267919851e+00  3.5557496004477360e+00  3.4903626957575740e+00  3.4256939123656482e+00  3.3618579241272837e+00  3.2989682696603873e+00  3.2371364007829002e+00  3.1764707037556730e+00  3.1170755104661683e+00  3.0590501185219443e+00  3.0024878405348145e+00  2.9474751035408526e+00  2.8940906194159015e+00  2.8424046462443613e+00  2.7924783588593360e+00  2.7443633442244750e+00  2.6981012340561823e+00  2.6537234832243746e+00  2.6112512981999516e+00  2.5706957153481196e+00  2.5320578244256731e+00  2.4953291284522083e+00  2.4604920273964503e+00  2.4275204100206960e+00  2.3963803358845630e+00  2.3670307879949175e+00  2.3394244759188259e+00  2.3135086693144351e+00  2.2892260427004376e+00  2.2665155137633772e+00  2.2453130594566502e+00  2.2255524964295947e+00  2.2071662147943965e+00  2.1900858567596986e+00  2.1742429341169145e+00  2.1595693808654564e+00  2.1459980393373