<?xml version="1.0"?>
<VTKFile type="UnstructuredGrid"  version="0.1"  >
<UnstructuredGrid>
<Piece  NumberOfPoints="1001" NumberOfCells="1000">
<Points>
<DataArray  type="Float64"  NumberOfComponents="3"  format="ascii">0 0 0  0.001 0 0  0.002 0 0  0.003 0 0  0.004 0 0  0.005 0 0  0.006 0 0  0.007 0 0  0.008 0 0  0.008999999999999999 0 0  0.01 0 0  0.011 0 0  0.012 0 0  0.013 0 0  0.014 0 0  0.015 0 0  0.016 0 0  0.017 0 0  0.018 0 0  0.019 0 0  0.02 0 0  0.021 0 0  0.022 0 0  0.023 0 0  0.024 0 0  0.025 0 0  0.026 0 0  0.027 0 0  0.028 0 0  0.029 0 0  0.03 0 0  0.031 0 0  0.032 0 0  0.033 0 0  0.034 0 0  0.035 0 0  0.036 0 0  0.037 0 0  0.038 0 0  0.039 0 0  0.04 0 0  0.041 0 0  0.042 0 0  0.043 0 0  0.044 0 0  0.045 0 0  0.046 0 0  0.047 0 0  0.048 0 0  0.049 0 0  0.05 0 0  0.051 0 0  0.052 0 0  0.053 0 0  0.054 0 0  0.055 0 0  0.056 0 0  0.057 0 0  0.058 0 0  0.059 0 0  0.06 0 0  0.061 0 0  0.062 0 0  0.063 0 0  0.064 0 0  0.065 0 0  0.066 0 0  0.067 0 0  0.068 0 0  0.06900000000000001 0 0  0.07000000000000001 0 0  0.07099999999999999 0 0  0.07199999999999999 0 0  0.073 0 0  0.074 0 0  0.075 0 0  0.076 0 0  0.077 0 0  0.078 0 0  0.079 0 0  0.08 0 0  0.081 0 0  0.082 0 0  0.083 0 0  0.08400000000000001 0 0  0.08500000000000001 0 0  0.08599999999999999 0 0  0.08699999999999999 0 0  0.08799999999999999 0 0  0.089 0 0  0.09 0 0  0.091 0 0  0.092 0 0  0.093 0 0  0.094 0 0  0.095 0 0  0.096 0 0  0.097 0 0  0.098 0 0  0.099 0 0  0.1 0 0  0.101 0 0  0.102 0 0  0.103 0 0  0.104 0 0  0.105 0 0  0.106 0 0  0.107 0 0  0.108 0 0  0.109 0 0  0.11 0 0  0.111 0 0  0.112 0 0  0.113 0 0  0.114 0 0  0.115 0 0  0.116 0 0  0.117 0 0  0.118 0 0  0.119 0 0  0.12 0 0  0.121 0 0  0.122 0 0  0.123 0 0  0.124 0 0  0.125 0 0  0.126 0 0  0.127 0 0  0.128 0 0  0.129 0 0  0.13 0 0  0.131 0 0  0.132 0 0  0.133 0 0  0.134 0 0  0.135 0 0  0.136 0 0  0.137 0 0  0.138 0 0  0.139 0 0  0.14 0 0  0.141 0 0  0.142 0 0  0.143 0 0  0.144 0 0  0.145 0 0  0.146 0 0  0.147 0 0  0.148 0 0  0.149 0 0  0.15 0 0  0.151 0 0  0.152 0 0  0.153 0 0  0.154 0 0  0.155 0 0  0.156 0 0  0.157 0 0  0.158 0 0  0.159 0 0  0.16 0 0  0.161 0 0  0.162 0 0  0.163 0 0  0.164 0 0  0.165 0 0  0.166 0 0  0.167 0 0  0.168 0 0  0.169 0 0  0.17 0 0  0.171 0 0  0.172 0 0  0.173 0 0  0.174 0 0  0.175 0 0  0.176 0 0  0.177 0 0  0.178 0 0  0.179 0 0  0.18 0 0  0.181 0 0  0.182 0 0  0.183 0 0  0.184 0 0  0.185 0 0  0.186 0 0  0.187 0 0  0.188 0 0  0.189 0 0  0.19 0 0  0.191 0 0  0.192 0 0  0.193 0 0  0.194 0 0  0.195 0 0  0.196 0 0  0.197 0 0  0.198 0 0  0.199 0 0  0.2 0 0  0.201 0 0  0.202 0 0  0.203 0 0  0.204 0 0  0.205 0 0  0.206 0 0  0.207 0 0  0.208 0 0  0.209 0 0  0.21 0 0  0.211 0 0  0.212 0 0  0.213 0 0  0.214 0 0  0.215 0 0  0.216 0 0  0.217 0 0  0.218 0 0  0.219 0 0  0.22 0 0  0.221 0 0  0.222 0 0  0.223 0 0  0.224 0 0  0.225 0 0  0.226 0 0  0.227 0 0  0.228 0 0  0.229 0 0  0.23 0 0  0.231 0 0  0.232 0 0  0.233 0 0  0.234 0 0  0.235 0 0  0.236 0 0  0.237 0 0  0.238 0 0  0.239 0 0  0.24 0 0  0.241 0 0  0.242 0 0  0.243 0 0  0.244 0 0  0.245 0 0  0.246 0 0  0.247 0 0  0.248 0 0  0.249 0 0  0.25 0 0  0.251 0 0  0.252 0 0  0.253 0 0  0.254 0 0  0.255 0 0  0.256 0 0  0.257 0 0  0.258 0 0  0.259 0 0  0.26 0 0  0.261 0 0  0.262 0 0  0.263 0 0  0.264 0 0  0.265 0 0  0.266 0 0  0.267 0 0  0.268 0 0  0.269 0 0  0.27 0 0  0.271 0 0  0.272 0 0  0.273 0 0  0.274 0 0  0.275 0 0  0.276 0 0  0.277 0 0  0.278 0 0  0.279 0 0  0.28 0 0  0.281 0 0  0.282 0 0  0.283 0 0  0.284 0 0  0.285 0 0  0.286 0 0  0.287 0 0  0.288 0 0  0.289 0 0  0.29 0 0  0.291 0 0  0.292 0 0  0.293 0 0  0.294 0 0  0.295 0 0  0.296 0 0  0.297 0 0  0.298 0 0  0.299 0 0  0.3 0 0  0.301 0 0  0.302 0 0  0.303 0 0  0.304 0 0  0.305 0 0  0.306 0 0  0.307 0 0  0.308 0 0  0.309 0 0  0.31 0 0  0.311 0 0  0.312 0 0  0.313 0 0  0.314 0 0  0.315 0 0  0.316 0 0  0.317 0 0  0.318 0 0  0.319 0 0  0.32 0 0  0.321 0 0  0.322 0 0  0.323 0 0  0.324 0 0  0.325 0 0  0.326 0 0  0.327 0 0  0.328 0 0  0.329 0 0  0.33 0 0  0.331 0 0  0.332 0 0  0.333 0 0  0.334 0 0  0.335 0 0  0.336 0 0  0.337 0 0  0.338 0 0  0.339 0 0  0.34 0 0  0.341 0 0  0.342 0 0  0.343 0 0  0.344 0 0  0.345 0 0  0.346 0 0  0.347 0 0  0.348 0 0  0.349 0 0  0.35 0 0  0.351 0 0  0.352 0 0  0.353 0 0  0.354 0 0  0.355 0 0  0.356 0 0  0.357 0 0  0.358 0 0  0.359 0 0  0.36 0 0  0.361 0 0  0.362 0 0  0.363 0 0  0.364 0 0  0.365 0 0  0.366 0 0  0.367 0 0  0.368 0 0  0.369 0 0  0.37 0 0  0.371 0 0  0.372 0 0  0.373 0 0  0.374 0 0  0.375 0 0  0.376 0 0  0.377 0 0  0.378 0 0  0.379 0 0  0.38 0 0  0.381 0 0  0.382 0 0  0.383 0 0  0.384 0 0  0.385 0 0  0.386 0 0  0.387 0 0  0.388 0 0  0.389 0 0  0.39 0 0  0.391 0 0  0.392 0 0  0.393 0 0  0.394 0 0  0.395 0 0  0.396 0 0  0.397 0 0  0.398 0 0  0.399 0 0  0.4 0 0  0.401 0 0  0.402 0 0  0.403 0 0  0.404 0 0  0.405 0 0  0.406 0 0  0.407 0 0  0.408 0 0  0.409 0 0  0.41 0 0  0.411 0 0  0.412 0 0  0.413 0 0  0.414 0 0  0.415 0 0  0.416 0 0  0.417 0 0  0.418 0 0  0.419 0 0  0.42 0 0  0.421 0 0  0.422 0 0  0.423 0 0  0.424 0 0  0.425 0 0  0.426 0 0  0.427 0 0  0.428 0 0  0.429 0 0  0.43 0 0  0.431 0 0  0.432 0 0  0.433 0 0  0.434 0 0  0.435 0 0  0.436 0 0  0.437 0 0  0.438 0 0  0.439 0 0  0.44 0 0  0.441 0 0  0.442 0 0  0.443 0 0  0.444 0 0  0.445 0 0  0.446 0 0  0.447 0 0  0.448 0 0  0.449 0 0  0.45 0 0  0.451 0 0  0.452 0 0  0.453 0 0  0.454 0 0  0.455 0 0  0.456 0 0  0.457 0 0  0.458 0 0  0.459 0 0  0.46 0 0  0.461 0 0  0.462 0 0  0.463 0 0  0.464 0 0  0.465 0 0  0.466 0 0  0.467 0 0  0.468 0 0  0.469 0 0  0.47 0 0  0.471 0 0  0.472 0 0  0.473 0 0  0.474 0 0  0.475 0 0  0.476 0 0  0.477 0 0  0.478 0 0  0.479 0 0  0.48 0 0  0.481 0 0  0.482 0 0  0.483 0 0  0.484 0 0  0.485 0 0  0.486 0 0  0.487 0 0  0.488 0 0  0.489 0 0  0.49 0 0  0.491 0 0  0.492 0 0  0.493 0 0  0.494 0 0  0.495 0 0  0.496 0 0  0.497 0 0  0.498 0 0  0.499 0 0  0.5 0 0  0.501 0 0  0.502 0 0  0.503 0 0  0.504 0 0  0.505 0 0  0.506 0 0  0.507 0 0  0.508 0 0  0.509 0 0  0.51 0 0  0.511 0 0  0.512 0 0  0.513 0 0  0.514 0 0  0.515 0 0  0.516 0 0  0.517 0 0  0.518 0 0  0.519 0 0  0.52 0 0  0.521 0 0  0.522 0 0  0.523 0 0  0.524 0 0  0.525 0 0  0.526 0 0  0.527 0 0  0.528 0 0  0.529 0 0  0.53 0 0  0.531 0 0  0.532 0 0  0.533 0 0  0.534 0 0  0.535 0 0  0.536 0 0  0.537 0 0  0.538 0 0  0.539 0 0  0.54 0 0  0.541 0 0  0.542 0 0  0.543 0 0  0.544 0 0  0.545 0 0  0.546 0 0  0.547 0 0  0.548 0 0  0.549 0 0  0.55 0 0  0.551 0 0  0.552 0 0  0.553 0 0  0.554 0 0  0.555 0 0  0.556 0 0  0.5570000000000001 0 0  0.5580000000000001 0 0  0.5590000000000001 0 0  0.5600000000000001 0 0  0.5610000000000001 0 0  0.5620000000000001 0 0  0.5629999999999999 0 0  0.5639999999999999 0 0  0.5649999999999999 0 0  0.5659999999999999 0 0  0.5669999999999999 0 0  0.5679999999999999 0 0  0.569 0 0  0.57 0 0  0.571 0 0  0.572 0 0  0.573 0 0  0.574 0 0  0.575 0 0  0.576 0 0  0.577 0 0  0.578 0 0  0.579 0 0  0.58 0 0  0.581 0 0  0.582 0 0  0.583 0 0  0.584 0 0  0.585 0 0  0.586 0 0  0.587 0 0  0.588 0 0  0.589 0 0  0.59 0 0  0.591 0 0  0.592 0 0  0.593 0 0  0.594 0 0  0.595 0 0  0.596 0 0  0.597 0 0  0.598 0 0  0.599 0 0  0.6 0 0  0.601 0 0  0.602 0 0  0.603 0 0  0.604 0 0  0.605 0 0  0.606 0 0  0.607 0 0  0.608 0 0  0.609 0 0  0.61 0 0  0.611 0 0  0.612 0 0  0.613 0 0  0.614 0 0  0.615 0 0  0.616 0 0  0.617 0 0  0.618 0 0  0.619 0 0  0.62 0 0  0.621 0 0  0.622 0 0  0.623 0 0  0.624 0 0  0.625 0 0  0.626 0 0  0.627 0 0  0.628 0 0  0.629 0 0  0.63 0 0  0.631 0 0  0.632 0 0  0.633 0 0  0.634 0 0  0.635 0 0  0.636 0 0  0.637 0 0  0.638 0 0  0.639 0 0  0.64 0 0  0.641 0 0  0.642 0 0  0.643 0 0  0.644 0 0  0.645 0 0  0.646 0 0  0.647 0 0  0.648 0 0  0.649 0 0  0.65 0 0  0.651 0 0  0.652 0 0  0.653 0 0  0.654 0 0  0.655 0 0  0.656 0 0  0.657 0 0  0.658 0 0  0.659 0 0  0.66 0 0  0.661 0 0  0.662 0 0  0.663 0 0  0.664 0 0  0.665 0 0  0.666 0 0  0.667 0 0  0.668 0 0  0.669 0 0  0.67 0 0  0.671 0 0  0.672 0 0  0.673 0 0  0.674 0 0  0.675 0 0  0.676 0 0  0.677 0 0  0.678 0 0  0.679 0 0  0.68 0 0  0.681 0 0  0.6820000000000001 0 0  0.6830000000000001 0 0  0.6840000000000001 0 0  0.6850000000000001 0 0  0.6860000000000001 0 0  0.6870000000000001 0 0  0.6879999999999999 0 0  0.6889999999999999 0 0  0.6899999999999999 0 0  0.6909999999999999 0 0  0.6919999999999999 0 0  0.6929999999999999 0 0  0.694 0 0  0.695 0 0  0.696 0 0  0.697 0 0  0.698 0 0  0.699 0 0  0.7 0 0  0.701 0 0  0.702 0 0  0.703 0 0  0.704 0 0  0.705 0 0  0.706 0 0  0.707 0 0  0.708 0 0  0.709 0 0  0.71 0 0  0.711 0 0  0.712 0 0  0.713 0 0  0.714 0 0  0.715 0 0  0.716 0 0  0.717 0 0  0.718 0 0  0.719 0 0  0.72 0 0  0.721 0 0  0.722 0 0  0.723 0 0  0.724 0 0  0.725 0 0  0.726 0 0  0.727 0 0  0.728 0 0  0.729 0 0  0.73 0 0  0.731 0 0  0.732 0 0  0.733 0 0  0.734 0 0  0.735 0 0  0.736 0 0  0.737 0 0  0.738 0 0  0.739 0 0  0.74 0 0  0.741 0 0  0.742 0 0  0.743 0 0  0.744 0 0  0.745 0 0  0.746 0 0  0.747 0 0  0.748 0 0  0.749 0 0  0.75 0 0  0.751 0 0  0.752 0 0  0.753 0 0  0.754 0 0  0.755 0 0  0.756 0 0  0.757 0 0  0.758 0 0  0.759 0 0  0.76 0 0  0.761 0 0  0.762 0 0  0.763 0 0  0.764 0 0  0.765 0 0  0.766 0 0  0.767 0 0  0.768 0 0  0.769 0 0  0.77 0 0  0.771 0 0  0.772 0 0  0.773 0 0  0.774 0 0  0.775 0 0  0.776 0 0  0.777 0 0  0.778 0 0  0.779 0 0  0.78 0 0  0.781 0 0  0.782 0 0  0.783 0 0  0.784 0 0  0.785 0 0  0.786 0 0  0.787 0 0  0.788 0 0  0.789 0 0  0.79 0 0  0.791 0 0  0.792 0 0  0.793 0 0  0.794 0 0  0.795 0 0  0.796 0 0  0.797 0 0  0.798 0 0  0.799 0 0  0.8 0 0  0.801 0 0  0.802 0 0  0.803 0 0  0.804 0 0  0.805 0 0  0.806 0 0  0.8070000000000001 0 0  0.8080000000000001 0 0  0.8090000000000001 0 0  0.8100000000000001 0 0  0.8110000000000001 0 0  0.8120000000000001 0 0  0.8129999999999999 0 0  0.8139999999999999 0 0  0.8149999999999999 0 0  0.8159999999999999 0 0  0.8169999999999999 0 0  0.8179999999999999 0 0  0.819 0 0  0.82 0 0  0.821 0 0  0.822 0 0  0.823 0 0  0.824 0 0  0.825 0 0  0.826 0 0  0.827 0 0  0.828 0 0  0.829 0 0  0.83 0 0  0.831 0 0  0.832 0 0  0.833 0 0  0.834 0 0  0.835 0 0  0.836 0 0  0.837 0 0  0.838 0 0  0.839 0 0  0.84 0 0  0.841 0 0  0
[...]
<PointData  Scalars="f_20-0"> 
<DataArray  type="Float64"  Name="f_20-0"  format="ascii">2.0000000000000004e+00  2.0000000000000000e+00  2.0000000000000004e+00  2.0000000000000000e+00  2.0000000000000000e+00  2.0000000000000009e+00  2.0000000000000000e+00  2.0000000000000004e+00  2.0000000000000004e+00  2.0000000000000004e+00  2.0000000000000004e+00  2.0000000000000004e+00  2.0000000000000004e+00  2.0000000000000004e+00  2.0000000000000004e+00  2.0000000000000004e+00  2.0000000000000004e+00  2.0000000000000004e+00  2.0000000000000004e+00  2.0000000000000004e+00  2.0000000000000004e+00  2.0000000000000004e+00  2.0000000000000004e+00  2.0000000000000013e+00  2.0000000000000022e+00  2.0000000000000018e+00  2.0000000000000040e+00  2.0000000000000098e+00  2.0000000000000169e+00  2.0000000000000226e+00  2.0000000000000315e+00  2.0000000000000426e+00  2.0000000000000555e+00  2.0000000000000693e+00  2.0000000000000857e+00  2.0000000000001052e+00  2.0000000000001288e+00  2.0000000000001563e+00  2.0000000000001887e+00  2.0000000000002278e+00  2.0000000000002762e+00  2.0000000000003340e+00  2.0000000000004023e+00  2.0000000000004841e+00  2.0000000000005804e+00  2.0000000000006968e+00  2.0000000000008340e+00  2.0000000000009988e+00  2.0000000000011955e+00  2.0000000000014300e+00  2.0000000000017106e+00  2.0000000000020446e+00  2.0000000000024425e+00  2.0000000000029159e+00  2.0000000000034786e+00  2.0000000000041487e+00  2.0000000000049454e+00  2.0000000000058922e+00  2.0000000000070175e+00  2.0000000000083538e+00  2.0000000000099400e+00  2.0000000000118239e+00  2.0000000000140572e+00  2.0000000000167044e+00  2.0000000000198415e+00  2.0000000000235594e+00  2.0000000000279612e+00  2.0000000000331712e+00  2.0000000000393352e+00  2.0000000000466258e+00  2.0000000000552443e+00  2.0000000000654286e+00  2.0000000000774567e+00  2.0000000000916582e+00  2.0000000001084173e+00  2.0000000001281864e+00  2.0000000001514966e+00  2.0000000001789688e+00  2.0000000002113318e+00  2.0000000002494449e+00  2.0000000002943090e+00  2.0000000003470952e+00  2.0000000004091771e+00  2.0000000004821601e+00  2.0000000005679204e+00  2.0000000006686527e+00  2.0000000007869208e+00  2.0000000009257173e+00  2.0000000010885355e+00  2.0000000012794503e+00  2.0000000015032153e+00  2.0000000017653710e+00  2.0000000020723721e+00  2.0000000024317335e+00  2.0000000028522069e+00  2.0000000033439735e+00  2.0000000039188737e+00  2.0000000045906723e+00  2.0000000053753619e+00  2.0000000062915224e+00  2.0000000073607191e+00  2.0000000086079752e+00  2.0000000100623212e+00  2.0000000117574102e+00  2.0000000137322407e+00  2.0000000160319851e+00  2.0000000187089459e+00  2.0000000218236504e+00  2.0000000254461150e+00  2.0000000296572944e+00  2.0000000345507489e+00  2.0000000402345575e+00  2.0000000468335153e+00  2.0000000544916521e+00  2.0000000633751216e+00  2.0000000736755181e+00  2.0000000856136624e+00  2.0000000994439486e+00  2.0000001154593159e+00  2.0000001339969309e+00  2.0000001554446922e+00  2.0000001802486569e+00  2.0000002089215236e+00  2.0000002420523222e+00  2.0000002803174652e+00  2.0000003244933540e+00  2.0000003754707438e+00  2.0000004342711235e+00  2.0000005020653600e+00  2.0000005801949134e+00  2.0000006701959907e+00  2.0000007738269980e+00  2.0000008930997404e+00  2.0000010303148743e+00  2.0000011881021487e+00  2.0000013694660779e+00  2.0000015778377422e+00  2.0000018171335188e+00  2.0000020918216186e+00  2.0000024069974494e+00  2.0000027684689168e+00  2.0000031828529283e+00  2.0000036576845175e+00  2.0000042015401758e+00  2.0000048241771586e+00  2.0000055366907676e+00  2.0000063516918232e+00  2.0000072835068261e+00  2.0000083484035684e+00  2.0000095648453202e+00  2.0000109537770427e+00  2.0000125389474870e+00  2.0000143472714962e+00  2.0000164092372965e+00  2.0000187593641181e+00  2.0000214367160836e+00  2.0000244854789648e+00  2.0000279556071439e+00  2.0000319035489040e+00  2.0000363930590934e+00  2.0000414961091768e+00  2.0000472939057334e+00  2.0000538780297168e+00  2.0000613517100159e+00  2.0000698312463476e+00  2.0000794475980355e+00  2.0000903481569758e+00  2.0001026987249610e+00  2.0001166857175594e+00  2.0001325186190351e+00  2.0001504327151807e+00  2.0001706921336591e+00  2.0001935932242727e+00  2.0002194683147807e+00  2.0002486898812633e+00  2.0002816751757146e+00  2.0003188913575722e+00  2.0003608611801442e+00  2.0004081692875926e+00  2.0004614691830604e+00  2.0005214909339233e+00  2.0005890496858556e+00  2.0006650550634957e+00  2.0007505215420207e+00  2.0008465798808248e+00  2.0009544897178020e+00  2.0010756534303971e+00  2.0012116313776369e+00  2.0013641586457553e+00  2.0015351634287120e+00  2.0017267871838520e+00  2.0019414067120773e+00  2.0021816583211387e+00  2.0024504642398138e+00  2.0027510614597976e+00  2.0030870331908042e+00  2.0034623431224317e+00  2.0038813726936895e+00  2.0043489615771195e+00  2.0048704515890416e+00  2.0054517342400064e+00  2.0060993021395279e+00  2.0068203044660105e+00  2.0076226067056666e+00  2.0085148548523426e+00  2.0095065442424684e+00  2.0106080931747967e+00  2.0118309214317454e+00  2.0131875337767173e+00  2.0146916084480035e+00  2.0163580906030378e+00  2.0182032905848613e+00  2.0202449867836481e+00  2.0225025327476827e+00  2.0249969680580886e+00  2.0277511323175030e+00  2.0307897814124916e+00  2.0341397049909737e+00  2.0378298438473150e+00  2.0418914056282733e+00  2.0463579769621565e+00  2.0512656297723839e+00  2.0566530191674044e+00  2.0625614699059636e+00  2.0690350480265738e+00  2.0761206138122370e+00  2.0838678518487370e+00  2.0923292735437129e+00  2.1015601871248855e+00  2.1116186298541657e+00  2.1225652570091871e+00  2.1344631821281541e+00  2.1473777631239059e+00  2.1613763291867545e+00  2.1765278439504359e+00  2.1929025012262313e+00  2.2105712507454736e+00  2.2296052528086503e+00  2.2500752625244247e+00  2.2720509464196681e+00  2.2956001365751644e+00  2.3207880300288801e+00  2.3476763439002513e+00  2.3763224394097007e+00  2.4067784305593620e+00  2.4390902955492249e+00  2.4732970108656804e+00  2.5094297292395797e+00  2.5475110231889859e+00  2.5875542155307447e+00  2.6295628170021046e+00  2.6735300889716558e+00  2.7194387461906717e+00  2.7672608107560714e+00  2.8169576240942056e+00  2.8684800190445801e+00  2.9217686492666566e+00  2.9767544684624481e+00  3.0333593475436271e+00  3.0914968140858958e+00  3.1510728953726836e+00  3.2119870441471914e+00  3.2741331249192287e+00  3.3374004383051750e+00  3.4016747613572225e+00  3.4668393830599116e+00  3.5327761160057287e+00  3.5993662675567393e+00  3.6664915564007696e+00  3.7340349631687686e+00  3.8018815065595728e+00  3.8699189391043300e+00  3.9380383592042234e+00  4.0061347383252173e+00  4.0741073641895751e+00  4.1418602024442652e+00  4.2093021806078816e+00  4.2763473991113754e+00  4.3429152749754651e+00  4.4089306241383204e+00  4.4743236886941462e+00  4.5390301153615358e+00  4.6029908914044757e+00  4.6661522440113972e+00  4.7284655088284886e+00  4.7898869729692599e+00  4.8503776974057340e+00  4.9099033232065974e+00  4.9684338656403790e+00  5.0259434997185677e+00  5.0824103403249623e+00  5.1378162196696548e+00  5.1921464644240061e+00  5.2453896745395578e+00  5.2975375054309568e+00  5.3485844549105632e+00  5.3985276560005575e+00  5.4473666765156565e+00  5.4951033261046938e+00  5.5417414712603703e+00  5.5872868586515265e+00  5.6317469469991988e+00  5.6751307476046282e+00  5.7174486735419023e+00  5.7587123974484502e+00  5.7989347177811741e+00  5.8381294333528757e+00  5.8763112259213433e+00  5.9134955505704774e+00  5.9496985335979469e+00  5.9849368776059615e+00  6.0192277734795052e+00  6.0525888189293839e+00  6.0850379432743678e+00  6.1165933381371911e+00  6.1472733937325614e+00  6.1770966404308023e+00  6.2060816952883187e+00  6.2342472132449043e+00  6.2616118426978824e+00  6.2881941851739649e+00  6.3140127588309092e+00  6.3390859655330107e+00  6.3634320612561579e+00  6.3870691295903956e+00  6.4100150581195550e+00  6.4322875174695824e+00  6.4539039428284450e+00  6.4748815177518120e+00  6.4952371600795971e+00  6.5149875097988836e+00  6.5341489186988824e+00  6.5527374416732060e+00  6.5707688295340558e+00  6.5882585232116115e+00  6.6052216492203986e+00  6.6216730162823234e+00  6.6376271130035631e+00  6.6530981065096375e+00  6.6680998419497461e+00  6.6826458427876894e+00  6.6967493118027983e+00  6.7104231327297414e+00  6.7236798724714353e+00  6.7365317838242547e+00  6.7489908086592001e+00  6.7610685815071871e+00  6.7727764335005753e+00  6.7841253966268527e+00  6.7951262082538886e+00  6.8057893158895153e+00  6.8161248821412403e+00  6.8261427898447282e+00  6.8358526473323531e+00  6.8452637938156480e+00  6.8543853048576588e+00  6.8632259979134940e+00  6.8717944379191689e+00  6.8800989429108244e+00  6.8881475896580051e+00  6.8959482192962822e+00  6.9035084429459772e+00  6.9108356473050474e+00  6.9179370002054750e+00  6.9248194561235961e+00  6.9314897616359286e+00  6.9379544608129917e+00  6.9442199005444243e+00  6.9502922357897550e+00  6.9561774347496508e+00  6.9618812839533772e+00  6.9674093932587580e+00  6.9727672007614734e+00  6.9779599776111407e+00  6.9829928327320259e+00  6.9878707174467607e+00  6.9925984300017623e+00  6.9971806199934719e+00  7.0016217926948494e+00  7.0059263132818215e+00  7.0100984109597411e+00  7.0141421829900281e+00  7.0180615986175372e+00  7.0218605028992389e+00  7.0255426204351181e+00  7.0291115590022173e+00  7.0325708130930149e+00  7.0359237673593533e+00  7.0391736999632828e+00  7.0423237858362784e+00  7.0453770998483778e+00  7.0483366198888051e+00  7.0512052298597530e+00  7.0539857225850531e+00  7.0566808026354435e+00  7.0592930890722192e+00  7.0618251181110763e+00  7.0642793457079245e+00  7.0666581500685401e+00  7.0689638340838110e+00  7.0711986276924694e+00  7.0733646901730536e+00  7.0754641123669382e+00  7.0774989188341957e+00  7.0794710699440664e+00  7.0813824639017309e+00  7.0832349387131508e+00  7.0850302740896254e+00  7.0867701932937148e+00  7.0884563649281898e+00  7.0900904046695663e+00  7.0916738769478096e+00  7.0932082965737475e+00  7.0946951303157189e+00  7.0961357984269560e+00  7.0975316761251630e+00  7.0988840950257810e+00  7.1001943445304025e+00  7.1014636731718124e+00  7.1026932899170632e+00  7.1038843654301287e+00  7.1050380332955738e+00  7.1061553912047630e+00  7.1072375021060941e+00  7.1082853953208236e+00  7.1093000676259859e+00  7.1102824843059960e+00  7.1112335801744573e+00  7.1121542605677366e+00  7.1130454023118217e+00  7.1139078546639709e+00  7.1147424402305361e+00  7.1155499558624129e+00  7.1163311735292805e+00  7.1170868411738644e+00  7.1178176835472016e+00  7.1185244030257699e+00  7.1192076804111402e+00  7.1198681757126723e+00  7.1205065289134373e+00  7.1211233607194950e+00  7.1217192732922836e+00  7.1222948509637058e+00  7.1228506609333291e+00  7.1233872539467873e+00  7.1239051649544196e+00  7.1244049137489371e+00  7.1248870055808080e+00  7.1253519317499521e+00  7.1258001701723250e+00  7.1262321859199309e+00  7.1266484317328471e+00  7.1270493485019681e+00  7.1274353657212899e+00  7.1278069019087349e+00  7.1281643649947242e+00  7.1285081526779965e+00  7.1288386527484047e+00  7.1291562433767277e+00  7.1294612933718300e+00  7.1297541624058640e+00  7.1300352012084085e+00  7.1303047517308320e+00  7.1305631472823192e+00  7.1308107126393674e+00  7.1310477641306091e+00  7.1312746096991155e+00  7.1314915489443438e+00  7.1316988731460444e+00  7.1318968652724504e+00  7.1320857999750462e+00  7.1322659435721825e+00  7.1324375540237002e+00  7.1326008808986536e+00  7.1327561653379901e+00  7.1329036400139918e+00  7.1330435290879759e+00  7.1331760481676669e+00  7.1333014042653540e+00  7.1334197957578631e+00  7.1335314123490319e+00  7.1336364350353438e+00  7.1337350360750751e+00  7.1338273789612154e+00  7.1339136183982861e+00  7.1339939002830048e+00  7.1340683616886800e+00  7.1341371308531345e+00  7.1342003271698502e+00  7.1342580611820088e+00  7.1343104345790538e+00  7.1343575401953903e+00  7.1343994620108058e+00  7.1344362751522397e+00  7.1344680458964849e+00  7.1344948316735088e+00  7.1345166810700222e+00  7.1345336338330227e+00  7.1345457208730449e+00  7.1345529642669350e+00  7.1345553772599200e+00  7.1345529642669341e+00  7.1345457208730476e+00  7.1345336338330254e+00  7.1345166810700267e+00  7.1344948316735124e+00  7.1344680458964866e+00  7.1344362751522423e+00  7.1343994620108111e+00  7.1343575401953929e+00  7.1343104345790582e+00  7.1342580611820132e+00  7.1342003271698511e+00  7.1341371308531354e+00  7.1340683616886791e+00  7.1339939002830057e+00  7.1339136183982887e+00  7.1338273789612199e+00  7.1337350360750786e+00  7.1336364350353465e+00  7.1335314123490301e+00  7.1334197957578551e+00  7.1333014042653504e+00  7.1331760481676643e+00  7.1330435290879732e+00  7.1329036400139891e+00  7.1327561653379865e+00  7.1326008808986536e+00  7.1324375540237011e+00  7.1322659435721842e+00  7.1320857999750462e+00  7.1318968652724504e+00  7.1316988731460444e+00  7.1314915489443447e+00  7.1312746096991200e+00  7.1310477641306127e+00  7.1308107126393674e+00  7.1305631472823192e+00  7.1303047517308320e+00  7.1300352012084076e+00  7.1297541624058622e+00  7.1294612933718291e+00  7.1291562433767242e+00  7.1288386527484029e+00  7.1285081526779939e+00  7.1281643649947224e+00  7.1278069019087349e+00  7.1274353657212908e+00  7.1270493485019646e+00  7.1266484317328462e+00  7.1262321859199291e+00  7.1258001701723233e+00  7.1253519317499476e+00  7.1248870055808053e+00  7.1244049137489345e+00  7.1239051649544143e+00  7.1233872539467811e+00  7.1228506609333238e+00  7.1222948509636996e+00  7.1217192732922774e+00  7.1211233607194906e+00  7.1205065289134337e+00  7.1198681757126696e+00  7.1192076804111393e+00  7.1185244030257673e+00  7.1178176835472007e+00  7.1170868411738617e+00  7.1163311735292796e+00  7.1155499558624138e+00  7.1147424402305370e+00  7.1139078546639691e+00  7.1130454023118199e+00  7.1121542605677321e+00  7.1112335801744537e+00  7.1102824843059915e+00  7.1093000676259823e+00  7.1082853953208200e+00  7.1072375021060914e+00  7.1061553912047595e+00  7.1050380332955729e+00  7.1038843654301251e+00  7.1026932899170623e+00  7.1014636731718115e+00  7.1001943445304025e+00  7.0988840950257810e+00  7.0975316761251648e+00  7.0961357984269542e+00  7.0946951303157180e+00  7.0932082965737440e+00  7.0916738769478087e+00  7.0900904046695690e+00  7.0884563649281906e+00  7.0867701932937148e+00  7.0850302740896263e+00  7.0832349387131508e+00  7.0813824639017309e+00  7.0794710699440646e+00  7.0774989188341939e+00  7.0754641123669346e+00  7.0733646901730536e+00  7.0711986276924739e+00  7.0689638340838137e+00  7.0666581500685410e+00  7.0642793457079236e+00  7.0618251181110745e+00  7.0592930890722210e+00  7.0566808026354435e+00  7.0539857225850557e+00  7.0512052298597538e+00  7.0483366198888051e+00  7.0453770998483769e+00  7.0423237858362739e+00  7.0391736999632801e+00  7.0359237673593542e+00  7.0325708130930167e+00  7.0291115590022208e+00  7.0255426204351217e+00  7.0218605028992434e+00  7.0180615986175399e+00  7.0141421829900299e+00  7.0100984109597411e+00  7.0059263132818215e+00  7.0016217926948494e+00  6.9971806199934719e+00  6.9925984300017632e+00  6.9878707174467607e+00  6.9829928327320268e+00  6.9779599776111398e+00  6.9727672007614760e+00  6.9674093932587589e+00  6.9618812839533808e+00  6.9561774347496543e+00  6.9502922357897594e+00  6.9442199005444261e+00  6.9379544608129917e+00  6.9314897616359321e+00  6.9248194561235952e+00  6.9179370002054750e+00  6.9108356473050474e+00  6.9035084429459772e+00  6.8959482192962831e+00  6.8881475896580069e+00  6.8800989429108244e+00  6.8717944379191689e+00  6.8632259979134922e+00  6.8543853048576562e+00  6.8452637938156462e+00  6.8358526473323531e+00  6.8261427898447291e+00  6.8161248821412430e+00  6.8057893158895144e+00  6.7951262082538895e+00  6.7841253966268553e+00  6.7727764335005771e+00  6.7610685815071880e+00  6.7489908086592019e+00  6.7365317838242591e+00  6.7236798724714371e+00  6.7104231327297406e+00  6.6967493118028001e+00  6.6826458427876902e+00  6.6680998419497479e+00  6.6530981065096393e+00  6.6376271130035649e+00  6.6216730162823261e+00  6.6052216492203986e+00  6.5882585232116151e+00  6.5707688295340576e+00  6.5527374416732060e+00  6.5341489186988779e+00  6.5149875097988819e+00  6.4952371600795953e+00  6.4748815177518111e+00  6.4539039428284450e+00  6.4322875174695824e+00  6.4100150581195550e+00  6.3870691295903956e+00  6.3634320612561597e+00  6.3390859655330054e+00  6.3140127588309074e+00  6.2881941851739622e+00  6.2616118426978806e+00  6.2342472132449034e+00  6.2060816952883195e+00  6.1770966404308032e+00  6.1472733937325614e+00  6.1165933381371911e+00  6.0850379432743651e+00  6.0525888189293848e+00  6.0192277734795052e+00  5.9849368776059615e+00  5.9496985335979495e+00  5.9134955505704792e+00  5.8763112259213495e+00  5.8381294333528775e+00  5.7989347177811750e+00  5.7587123974484529e+00  5.7174486735419041e+00  5.6751307476046291e+00  5.6317469469991988e+00  5.5872868586515274e+00  5.5417414712603721e+00  5.4951033261046955e+00  5.4473666765156583e+00  5.3985276560005646e+00  5.3485844549105686e+00  5.2975375054309630e+00  5.2453896745395641e+00  5.1921464644240141e+00  5.1378162196696637e+00  5.0824103403249667e+00  5.0259434997185748e+00  4.9684338656403879e+00  4.9099033232066036e+00  4.8503776974057384e+00  4.7898869729692697e+00  4.7284655088284957e+00  4.6661522440114078e+00  4.6029908914044855e+00  4.5390301153615411e+00  4.4743236886941515e+00  4.4089306241383257e+00  4.3429152749754678e+00  4.2763473991113745e+00  4.2093021806078816e+00  4.1418602024442688e+00  4.0741073641895786e+00  4.0061347383252190e+00  3.9380383592042238e+00  3.8699189391043327e+00  3.8018815065595759e+00  3.7340349631687721e+00  3.6664915564007750e+00  3.5993662675567450e+00  3.5327761160057327e+00  3.4668393830599147e+00  3.4016747613572251e+00  3.3374004383051781e+00  3.2741331249192305e+00  3.2119870441471949e+00  3.1510728953726872e+00  3.0914968140858998e+00  3.0333593475436311e+00  2.9767544684624521e+00  2.9217686492666615e+00  2.8684800190445836e+00  2.8169576240942087e+00  2.7672608107560750e+00  2.7194387461906757e+00  2.6735300889716616e+00  2.6295628170021108e+00  2.5875542155307469e+00  2.5475110231889881e+00  2.5094297292395811e+00  2.4732970108656831e+00  2.4390902955492271e+00  2.4067784305593656e+00  2.3763224394097038e+00  2.3476763439002539e+00  2.3207880300288801e+00  2.2956001365751644e+00  2.2720509464196690e+00  2.2500752625244260e+00  2.2296052528086512e+00  2.2105712507454758e+00  2.1929025012262322e+00  2.1765278439504350e+00  2.1613763291867532e+00  2.1473777631239050e+00  2.1344631821281541e+00  2.1225652570091880e+00  2.1116186298541670e+00  2.1015601871248881e+00  2.0923292735437160e+00  2.0838678518487392e+00  2.0761206138122388e+00  2.0690350480265742e+00  2.0625614699059636e+00  2.0566530191674044e+00  2.0512656297723830e+00  2.0463579769621565e+00  2.0418914056282733e+00  2.0378298438473150e+00  2.0341397049909742e+00  2.0307897814124924e+00  2.0277511323175035e+00  2.0249969680580882e+00  2.0225025327476818e+00  2.0202449867836481e+00  2.0182032905848617e+00  2.0163580906030378e+00  2.0146916084480027e+00  2.0131875337767147e+00  2.0118309214317427e+00  2.0106080931747945e+00  2.0095065442424671e+00  2.0085148548523422e+00  2.0076226067056666e+00  2.0068203044660091e+00  2.0060993021395270e+00  2.0054517342400064e+00  2.0048704515890416e+00  2.0043489615771195e+00  2.0038813726936899e+00  2.0034623431224321e+00  2.0030870331908046e+00  2.0027510614597994e+00  2.0024504642398155e+00  2.0021816583211414e+00  2.0019414067120782e+00  2.0017267871838516e+00  2.0015351634287115e+00  2.0013641586457545e+00  2.0012116313776360e+00  2.0010756534303975e+00  2.0009544897178011e+00  2.0008465798808244e+00  2.0007505215420212e+00  2.0006650550634961e+00  2.0005890496858556e+00  2.0005214909339233e+00  2.0004614691830591e+00  2.0004081692875926e+00  2.0003608611801451e+00  2.0003188913575722e+00  2.0002816751757142e+00  2.0002486898812619e+00  2.0002194683147803e+00  2.0001935932242727e+00  2.0001706921336