<?xml version="1.0"?>
<VTKFile type="UnstructuredGrid"  version="0.1"  >
<UnstructuredGrid>
<Piece  NumberOfPoints="1001" NumberOfCells="1000">
<Points>
<DataArray  type="Float64"  NumberOfComponents="3"  format="ascii">0 0 0  0.001 0 0  0.002 0 0  0.003 0 0  0.004 0 0  0.005 0 0  0.006 0 0  0.007 0 0  0.008 0 0  0.008999999999999999 0 0  0.01 0 0  0.011 0 0  0.012 0 0  0.013 0 0  0.014 0 0  0.015 0 0  0.016 0 0  0.017 0 0  0.018 0 0  0.019 0 0  0.02 0 0  0.021 0 0  0.022 0 0  0.023 0 0  0.024 0 0  0.025 0 0  0.026 0 0  0.027 0 0  0.028 0 0  0.029 0 0  0.03 0 0  0.031 0 0  0.032 0 0  0.033 0 0  0.034 0 0  0.035 0 0  0.036 0 0  0.037 0 0  0.038 0 0  0.039 0 0  0.04 0 0  0.041 0 0  0.042 0 0  0.043 0 0  0.044 0 0  0.045 0 0  0.046 0 0  0.047 0 0  0.048 0 0  0.049 0 0  0.05 0 0  0.051 0 0  0.052 0 0  0.053 0 0  0.054 0 0  0.055 0 0  0.056 0 0  0.057 0 0  0.058 0 0  0.059 0 0  0.06 0 0  0.061 0 0  0.062 0 0  0.063 0 0  0.064 0 0  0.065 0 0  0.066 0 0  0.067 0 0  0.068 0 0  0.06900000000000001 0 0  0.07000000000000001 0 0  0.07099999999999999 0 0  0.07199999999999999 0 0  0.073 0 0  0.074 0 0  0.075 0 0  0.076 0 0  0.077 0 0  0.078 0 0  0.079 0 0  0.08 0 0  0.081 0 0  0.082 0 0  0.083 0 0  0.08400000000000001 0 0  0.08500000000000001 0 0  0.08599999999999999 0 0  0.08699999999999999 0 0  0.08799999999999999 0 0  0.089 0 0  0.09 0 0  0.091 0 0  0.092 0 0  0.093 0 0  0.094 0 0  0.095 0 0  0.096 0 0  0.097 0 0  0.098 0 0  0.099 0 0  0.1 0 0  0.101 0 0  0.102 0 0  0.103 0 0  0.104 0 0  0.105 0 0  0.106 0 0  0.107 0 0  0.108 0 0  0.109 0 0  0.11 0 0  0.111 0 0  0.112 0 0  0.113 0 0  0.114 0 0  0.115 0 0  0.116 0 0  0.117 0 0  0.118 0 0  0.119 0 0  0.12 0 0  0.121 0 0  0.122 0 0  0.123 0 0  0.124 0 0  0.125 0 0  0.126 0 0  0.127 0 0  0.128 0 0  0.129 0 0  0.13 0 0  0.131 0 0  0.132 0 0  0.133 0 0  0.134 0 0  0.135 0 0  0.136 0 0  0.137 0 0  0.138 0 0  0.139 0 0  0.14 0 0  0.141 0 0  0.142 0 0  0.143 0 0  0.144 0 0  0.145 0 0  0.146 0 0  0.147 0 0  0.148 0 0  0.149 0 0  0.15 0 0  0.151 0 0  0.152 0 0  0.153 0 0  0.154 0 0  0.155 0 0  0.156 0 0  0.157 0 0  0.158 0 0  0.159 0 0  0.16 0 0  0.161 0 0  0.162 0 0  0.163 0 0  0.164 0 0  0.165 0 0  0.166 0 0  0.167 0 0  0.168 0 0  0.169 0 0  0.17 0 0  0.171 0 0  0.172 0 0  0.173 0 0  0.174 0 0  0.175 0 0  0.176 0 0  0.177 0 0  0.178 0 0  0.179 0 0  0.18 0 0  0.181 0 0  0.182 0 0  0.183 0 0  0.184 0 0  0.185 0 0  0.186 0 0  0.187 0 0  0.188 0 0  0.189 0 0  0.19 0 0  0.191 0 0  0.192 0 0  0.193 0 0  0.194 0 0  0.195 0 0  0.196 0 0  0.197 0 0  0.198 0 0  0.199 0 0  0.2 0 0  0.201 0 0  0.202 0 0  0.203 0 0  0.204 0 0  0.205 0 0  0.206 0 0  0.207 0 0  0.208 0 0  0.209 0 0  0.21 0 0  0.211 0 0  0.212 0 0  0.213 0 0  0.214 0 0  0.215 0 0  0.216 0 0  0.217 0 0  0.218 0 0  0.219 0 0  0.22 0 0  0.221 0 0  0.222 0 0  0.223 0 0  0.224 0 0  0.225 0 0  0.226 0 0  0.227 0 0  0.228 0 0  0.229 0 0  0.23 0 0  0.231 0 0  0.232 0 0  0.233 0 0  0.234 0 0  0.235 0 0  0.236 0 0  0.237 0 0  0.238 0 0  0.239 0 0  0.24 0 0  0.241 0 0  0.242 0 0  0.243 0 0  0.244 0 0  0.245 0 0  0.246 0 0  0.247 0 0  0.248 0 0  0.249 0 0  0.25 0 0  0.251 0 0  0.252 0 0  0.253 0 0  0.254 0 0  0.255 0 0  0.256 0 0  0.257 0 0  0.258 0 0  0.259 0 0  0.26 0 0  0.261 0 0  0.262 0 0  0.263 0 0  0.264 0 0  0.265 0 0  0.266 0 0  0.267 0 0  0.268 0 0  0.269 0 0  0.27 0 0  0.271 0 0  0.272 0 0  0.273 0 0  0.274 0 0  0.275 0 0  0.276 0 0  0.277 0 0  0.278 0 0  0.279 0 0  0.28 0 0  0.281 0 0  0.282 0 0  0.283 0 0  0.284 0 0  0.285 0 0  0.286 0 0  0.287 0 0  0.288 0 0  0.289 0 0  0.29 0 0  0.291 0 0  0.292 0 0  0.293 0 0  0.294 0 0  0.295 0 0  0.296 0 0  0.297 0 0  0.298 0 0  0.299 0 0  0.3 0 0  0.301 0 0  0.302 0 0  0.303 0 0  0.304 0 0  0.305 0 0  0.306 0 0  0.307 0 0  0.308 0 0  0.309 0 0  0.31 0 0  0.311 0 0  0.312 0 0  0.313 0 0  0.314 0 0  0.315 0 0  0.316 0 0  0.317 0 0  0.318 0 0  0.319 0 0  0.32 0 0  0.321 0 0  0.322 0 0  0.323 0 0  0.324 0 0  0.325 0 0  0.326 0 0  0.327 0 0  0.328 0 0  0.329 0 0  0.33 0 0  0.331 0 0  0.332 0 0  0.333 0 0  0.334 0 0  0.335 0 0  0.336 0 0  0.337 0 0  0.338 0 0  0.339 0 0  0.34 0 0  0.341 0 0  0.342 0 0  0.343 0 0  0.344 0 0  0.345 0 0  0.346 0 0  0.347 0 0  0.348 0 0  0.349 0 0  0.35 0 0  0.351 0 0  0.352 0 0  0.353 0 0  0.354 0 0  0.355 0 0  0.356 0 0  0.357 0 0  0.358 0 0  0.359 0 0  0.36 0 0  0.361 0 0  0.362 0 0  0.363 0 0  0.364 0 0  0.365 0 0  0.366 0 0  0.367 0 0  0.368 0 0  0.369 0 0  0.37 0 0  0.371 0 0  0.372 0 0  0.373 0 0  0.374 0 0  0.375 0 0  0.376 0 0  0.377 0 0  0.378 0 0  0.379 0 0  0.38 0 0  0.381 0 0  0.382 0 0  0.383 0 0  0.384 0 0  0.385 0 0  0.386 0 0  0.387 0 0  0.388 0 0  0.389 0 0  0.39 0 0  0.391 0 0  0.392 0 0  0.393 0 0  0.394 0 0  0.395 0 0  0.396 0 0  0.397 0 0  0.398 0 0  0.399 0 0  0.4 0 0  0.401 0 0  0.402 0 0  0.403 0 0  0.404 0 0  0.405 0 0  0.406 0 0  0.407 0 0  0.408 0 0  0.409 0 0  0.41 0 0  0.411 0 0  0.412 0 0  0.413 0 0  0.414 0 0  0.415 0 0  0.416 0 0  0.417 0 0  0.418 0 0  0.419 0 0  0.42 0 0  0.421 0 0  0.422 0 0  0.423 0 0  0.424 0 0  0.425 0 0  0.426 0 0  0.427 0 0  0.428 0 0  0.429 0 0  0.43 0 0  0.431 0 0  0.432 0 0  0.433 0 0  0.434 0 0  0.435 0 0  0.436 0 0  0.437 0 0  0.438 0 0  0.439 0 0  0.44 0 0  0.441 0 0  0.442 0 0  0.443 0 0  0.444 0 0  0.445 0 0  0.446 0 0  0.447 0 0  0.448 0 0  0.449 0 0  0.45 0 0  0.451 0 0  0.452 0 0  0.453 0 0  0.454 0 0  0.455 0 0  0.456 0 0  0.457 0 0  0.458 0 0  0.459 0 0  0.46 0 0  0.461 0 0  0.462 0 0  0.463 0 0  0.464 0 0  0.465 0 0  0.466 0 0  0.467 0 0  0.468 0 0  0.469 0 0  0.47 0 0  0.471 0 0  0.472 0 0  0.473 0 0  0.474 0 0  0.475 0 0  0.476 0 0  0.477 0 0  0.478 0 0  0.479 0 0  0.48 0 0  0.481 0 0  0.482 0 0  0.483 0 0  0.484 0 0  0.485 0 0  0.486 0 0  0.487 0 0  0.488 0 0  0.489 0 0  0.49 0 0  0.491 0 0  0.492 0 0  0.493 0 0  0.494 0 0  0.495 0 0  0.496 0 0  0.497 0 0  0.498 0 0  0.499 0 0  0.5 0 0  0.501 0 0  0.502 0 0  0.503 0 0  0.504 0 0  0.505 0 0  0.506 0 0  0.507 0 0  0.508 0 0  0.509 0 0  0.51 0 0  0.511 0 0  0.512 0 0  0.513 0 0  0.514 0 0  0.515 0 0  0.516 0 0  0.517 0 0  0.518 0 0  0.519 0 0  0.52 0 0  0.521 0 0  0.522 0 0  0.523 0 0  0.524 0 0  0.525 0 0  0.526 0 0  0.527 0 0  0.528 0 0  0.529 0 0  0.53 0 0  0.531 0 0  0.532 0 0  0.533 0 0  0.534 0 0  0.535 0 0  0.536 0 0  0.537 0 0  0.538 0 0  0.539 0 0  0.54 0 0  0.541 0 0  0.542 0 0  0.543 0 0  0.544 0 0  0.545 0 0  0.546 0 0  0.547 0 0  0.548 0 0  0.549 0 0  0.55 0 0  0.551 0 0  0.552 0 0  0.553 0 0  0.554 0 0  0.555 0 0  0.556 0 0  0.5570000000000001 0 0  0.5580000000000001 0 0  0.5590000000000001 0 0  0.5600000000000001 0 0  0.5610000000000001 0 0  0.5620000000000001 0 0  0.5629999999999999 0 0  0.5639999999999999 0 0  0.5649999999999999 0 0  0.5659999999999999 0 0  0.5669999999999999 0 0  0.5679999999999999 0 0  0.569 0 0  0.57 0 0  0.571 0 0  0.572 0 0  0.573 0 0  0.574 0 0  0.575 0 0  0.576 0 0  0.577 0 0  0.578 0 0  0.579 0 0  0.58 0 0  0.581 0 0  0.582 0 0  0.583 0 0  0.584 0 0  0.585 0 0  0.586 0 0  0.587 0 0  0.588 0 0  0.589 0 0  0.59 0 0  0.591 0 0  0.592 0 0  0.593 0 0  0.594 0 0  0.595 0 0  0.596 0 0  0.597 0 0  0.598 0 0  0.599 0 0  0.6 0 0  0.601 0 0  0.602 0 0  0.603 0 0  0.604 0 0  0.605 0 0  0.606 0 0  0.607 0 0  0.608 0 0  0.609 0 0  0.61 0 0  0.611 0 0  0.612 0 0  0.613 0 0  0.614 0 0  0.615 0 0  0.616 0 0  0.617 0 0  0.618 0 0  0.619 0 0  0.62 0 0  0.621 0 0  0.622 0 0  0.623 0 0  0.624 0 0  0.625 0 0  0.626 0 0  0.627 0 0  0.628 0 0  0.629 0 0  0.63 0 0  0.631 0 0  0.632 0 0  0.633 0 0  0.634 0 0  0.635 0 0  0.636 0 0  0.637 0 0  0.638 0 0  0.639 0 0  0.64 0 0  0.641 0 0  0.642 0 0  0.643 0 0  0.644 0 0  0.645 0 0  0.646 0 0  0.647 0 0  0.648 0 0  0.649 0 0  0.65 0 0  0.651 0 0  0.652 0 0  0.653 0 0  0.654 0 0  0.655 0 0  0.656 0 0  0.657 0 0  0.658 0 0  0.659 0 0  0.66 0 0  0.661 0 0  0.662 0 0  0.663 0 0  0.664 0 0  0.665 0 0  0.666 0 0  0.667 0 0  0.668 0 0  0.669 0 0  0.67 0 0  0.671 0 0  0.672 0 0  0.673 0 0  0.674 0 0  0.675 0 0  0.676 0 0  0.677 0 0  0.678 0 0  0.679 0 0  0.68 0 0  0.681 0 0  0.6820000000000001 0 0  0.6830000000000001 0 0  0.6840000000000001 0 0  0.6850000000000001 0 0  0.6860000000000001 0 0  0.6870000000000001 0 0  0.6879999999999999 0 0  0.6889999999999999 0 0  0.6899999999999999 0 0  0.6909999999999999 0 0  0.6919999999999999 0 0  0.6929999999999999 0 0  0.694 0 0  0.695 0 0  0.696 0 0  0.697 0 0  0.698 0 0  0.699 0 0  0.7 0 0  0.701 0 0  0.702 0 0  0.703 0 0  0.704 0 0  0.705 0 0  0.706 0 0  0.707 0 0  0.708 0 0  0.709 0 0  0.71 0 0  0.711 0 0  0.712 0 0  0.713 0 0  0.714 0 0  0.715 0 0  0.716 0 0  0.717 0 0  0.718 0 0  0.719 0 0  0.72 0 0  0.721 0 0  0.722 0 0  0.723 0 0  0.724 0 0  0.725 0 0  0.726 0 0  0.727 0 0  0.728 0 0  0.729 0 0  0.73 0 0  0.731 0 0  0.732 0 0  0.733 0 0  0.734 0 0  0.735 0 0  0.736 0 0  0.737 0 0  0.738 0 0  0.739 0 0  0.74 0 0  0.741 0 0  0.742 0 0  0.743 0 0  0.744 0 0  0.745 0 0  0.746 0 0  0.747 0 0  0.748 0 0  0.749 0 0  0.75 0 0  0.751 0 0  0.752 0 0  0.753 0 0  0.754 0 0  0.755 0 0  0.756 0 0  0.757 0 0  0.758 0 0  0.759 0 0  0.76 0 0  0.761 0 0  0.762 0 0  0.763 0 0  0.764 0 0  0.765 0 0  0.766 0 0  0.767 0 0  0.768 0 0  0.769 0 0  0.77 0 0  0.771 0 0  0.772 0 0  0.773 0 0  0.774 0 0  0.775 0 0  0.776 0 0  0.777 0 0  0.778 0 0  0.779 0 0  0.78 0 0  0.781 0 0  0.782 0 0  0.783 0 0  0.784 0 0  0.785 0 0  0.786 0 0  0.787 0 0  0.788 0 0  0.789 0 0  0.79 0 0  0.791 0 0  0.792 0 0  0.793 0 0  0.794 0 0  0.795 0 0  0.796 0 0  0.797 0 0  0.798 0 0  0.799 0 0  0.8 0 0  0.801 0 0  0.802 0 0  0.803 0 0  0.804 0 0  0.805 0 0  0.806 0 0  0.8070000000000001 0 0  0.8080000000000001 0 0  0.8090000000000001 0 0  0.8100000000000001 0 0  0.8110000000000001 0 0  0.8120000000000001 0 0  0.8129999999999999 0 0  0.8139999999999999 0 0  0.8149999999999999 0 0  0.8159999999999999 0 0  0.8169999999999999 0 0  0.8179999999999999 0 0  0.819 0 0  0.82 0 0  0.821 0 0  0.822 0 0  0.823 0 0  0.824 0 0  0.825 0 0  0.826 0 0  0.827 0 0  0.828 0 0  0.829 0 0  0.83 0 0  0.831 0 0  0.832 0 0  0.833 0 0  0.834 0 0  0.835 0 0  0.836 0 0  0.837 0 0  0.838 0 0  0.839 0 0  0.84 0 0  0.841 0 0  0
[...]
<PointData  Scalars="f_20-0"> 
<DataArray  type="Float64"  Name="f_20-0"  format="ascii">3.5402976025295247e+00  3.5425645433397683e+00  3.5493472696395401e+00  3.5605919029675799e+00  3.5762099939325767e+00  3.5960804812463478e+00  3.6200523130131268e+00  3.6479476193968869e+00  3.6795653078463877e+00  3.7146849424507553e+00  3.7530707677356681e+00  3.7944757436020762e+00  3.8386454709110325e+00  3.8853219048189596e+00  3.9342467735955782e+00  3.9851646425689955e+00  4.0378255844806166e+00  4.0919874376290482e+00  4.1474176508165188e+00  4.2038947287176756e+00  4.2612093026301761e+00  4.3191648596731085e+00  4.3775781686135788e+00  4.4362794430023493e+00  4.4951122826395995e+00  4.5539334330472538e+00  4.6126124000527975e+00  4.6710309532037986e+00  4.7290825478847340e+00  4.7866716919830496e+00  4.8437132789684672e+00  4.9001319054658232e+00  4.9558611879219514e+00  5.0108430898521048e+00  5.0650272684281212e+00  5.1183704468397799e+00  5.1708358169058632e+00  5.2223924748036170e+00  5.2730148914889572e+00  5.3226824183571129e+00  5.3713788279050840e+00  5.4190918885673431e+00  5.4658129724698030e+00  5.5115366945545068e+00  5.5562605813414141e+00  5.5999847674917174e+00  5.6427117182995747e+00  5.6844459762502302e+00  5.7251939298290218e+00  5.7649636028371711e+00  5.8037644625581652e+00  5.8416072452165135e+00  5.8785037972737042e+00  5.9144669312103284e+00  5.9495102945463447e+00  5.9836482509507816e+00  6.0168957723869925e+00  6.0492683413289070e+00  6.0807818621670009e+00  6.1114525810000213e+00  6.1412970130795861e+00  6.1703318772401472e+00  6.1985740367063560e+00  6.2260404457242178e+00  6.2527481015118980e+00  6.2787140010707159e+00  6.3039551024376772e+00  6.3284882899975479e+00  6.3523303435060230e+00  6.3754979105055209e+00  6.3980074818427077e+00  6.4198753700215265e+00  6.4411176901481202e+00  6.4617503432443426e+00  6.4817890017252813e+00  6.5012490968529901e+00  6.5201458079940551e+00  6.5384940535227454e+00  6.5563084832241465e+00  6.5736034720636143e+00  6.5903931151993929e+00  6.6066912241252753e+00  6.6225113238390874e+00  6.6378666509410635e+00  6.6527701525739058e+00  6.6672344861231876e+00  6.6812720196033508e+00  6.6948948326604159e+00  6.7081147181280354e+00  6.7209431840786200e+00  6.7333914563159079e+00  6.7454704812597086e+00  6.7571909291774999e+00  6.7685631977213401e+00  6.7795974157318621e+00  6.7903034472743808e+00  6.8006908958750332e+00  6.8107691089275262e+00  6.8205471822437005e+00  6.8300339647232748e+00  6.8392380631204270e+00  6.8481678468867413e+00  6.8568314530719663e+00  6.8652367912656524e+00  6.8733915485643857e+00  6.8813031945506760e+00  6.8889789862710424e+00  6.8964259732019091e+00  6.9036510021931834e+00  6.9106607223804151e+00  6.9174615900573544e+00  6.9240598735016796e+00  6.9304616577474665e+00  6.9366728492987040e+00  6.9426991807788827e+00  6.9485462155123416e+00  6.9542193520335678e+00  6.9597238285212608e+00  6.9650647271544477e+00  6.9702469783883290e+00  6.9752753651480024e+00  6.9801545269386169e+00  6.9848889638707217e+00  6.9894830406000530e+00  6.9939409901811347e+00  6.9982669178344326e+00  7.0024648046269604e+00  7.0065385110664922e+00  7.0104917806097138e+00  7.0143282430847469e+00  7.0180514180287776e+00  7.0216647179414924e+00  7.0251714514552388e+00  7.0285748264229397e+00  7.0318779529248134e+00  7.0350838461950929e+00  7.0381954294699840e+00  7.0412155367581875e+00  7.0441469155353014e+00  7.0469922293635374e+00  7.0497540604381577e+00  7.0524349120621341e+00  7.0550372110504656e+00  7.0575633100656798e+00  7.0600154898860463e+00  7.0623959616079937e+00  7.0647068687842474e+00  7.0669502894992640e+00  7.0691282383833878e+00  7.0712426685673284e+00  7.0732954735783826e+00  7.0752884891799264e+00  7.0772234951556330e+00  7.0791022170398676e+00  7.0809263277956820e+00  7.0826974494418309e+00  7.0844171546301951e+00  7.0860869681749747e+00  7.0877083685350017e+00  7.0892827892504648e+00  7.0908116203353844e+00  7.0922962096270501e+00  7.0937378640937014e+00  7.0951378511016356e+00  7.0964973996429510e+00  7.0978177015250745e+00  7.0990999125231991e+00  7.1003451534967388e+00  7.1015545114708960e+00  7.1027290406843617e+00  7.1038697636042016e+00  7.1049776719088964e+00  7.1060537274405489e+00  7.1070988631271579e+00  7.1081139838759118e+00  7.1090999674383877e+00  7.1100576652485019e+00  7.1109879032341228e+00  7.1118914826030828e+00  7.1127691806044622e+00  7.1136217512658773e+00  7.1144499261075440e+00  7.1152544148338306e+00  7.1160359060030531e+00  7.1167950676761258e+00  7.1175325480448244e+00  7.1182489760402365e+00  7.1189449619220770e+00  7.1196210978494330e+00  7.1202779584335838e+00  7.1209161012734041e+00  7.1215360674739854e+00  7.1221383821488997e+00  7.1227235549067673e+00  7.1232920803225062e+00  7.1238444383938200e+00  7.1243810949833968e+00  7.1249025022472399e+00  7.1254090990496142e+00  7.1259013113650047e+00  7.1263795526675322e+00  7.1268442243082148e+00  7.1272957158804493e+00  7.1277344055741265e+00  7.1281606605187138e+00  7.1285748371156670e+00  7.1289772813605241e+00  7.1293683291549925e+00  7.1297483066093674e+00  7.1301175303355775e+00  7.1304763077311852e+00  7.1308249372545616e+00  7.1311637086916368e+00  7.1314929034143582e+00  7.1318127946312107e+00  7.1321236476300509e+00  7.1324257200134404e+00  7.1327192619267823e+00  7.1330045162794447e+00  7.1332817189591218e+00  7.1335510990396305e+00  7.1338128789823623e+00  7.1340672748315752e+00  7.1343144964037544e+00  7.1345547474711823e+00  7.1347882259399311e+00  7.1350151240224662e+00  7.1352356284049856e+00  7.1354499204097053e+00  7.1356581761522335e+00  7.1358605666941770e+00  7.1360572581911352e+00  7.1362484120362515e+00  7.1364341849994126e+00  7.1366147293622779e+00  7.1367901930492588e+00  7.1369607197545246e+00  7.1371264490652448e+00  7.1372875165811225e+00  7.1374440540303432e+00  7.1375961893820739e+00  7.1377440469555955e+00  7.1378877475261788e+00  7.1380274084278179e+00  7.1381631436528883e+00  7.1382950639488811e+00  7.1384232769122127e+00  7.1385478870792944e+00  7.1386689960148972e+00  7.1387867023978835e+00  7.1389011021044340e+00  7.1390122882887779e+00  7.1391203514615880e+00  7.1392253795660379e+00  7.1393274580516168e+00  7.1394266699457951e+00  7.1395230959235638e+00  7.1396168143749588e+00  7.1397079014705600e+00  7.1397964312251458e+00  7.1398824755593964e+00  7.1399661043598712e+00  7.1400473855371844e+00  7.1401263850825103e+00  7.1402031671224204e+00  7.1402777939721540e+00  7.1403503261873018e+00  7.1404208226140140e+00  7.1404893404377345e+00  7.1405559352305419e+00  7.1406206609970848e+00  7.1406835702192089e+00  7.1407447138993012e+00  7.1408041416023522e+00  7.1408619014968249e+00  7.1409180403943324e+00  7.1409726037881711e+00  7.1410256358907507e+00  7.1410771796699422e+00  7.1411272768843643e+00  7.1411759681176807e+00  7.1412232928119037e+00  7.1412692892997027e+00  7.1413139948358699e+00  7.1413574456277740e+00  7.1413996768650403e+00  7.1414407227483201e+00  7.1414806165172546e+00  7.1415193904776375e+00  7.1415570760277980e+00  7.1415937036842436e+00  7.1416293031065461e+00  7.1416639031215370e+00  7.1416975317468037e+00  7.1417302162135101e+00  7.1417619829885988e+00  7.1417928577962977e+00  7.1418228656390896e+00  7.1418520308180247e+00  7.1418803769524848e+00  7.1419079269993899e+00  7.1419347032718266e+00  7.1419607274571977e+00  7.1419860206347971e+00  7.1420106032929436e+00  7.1420344953455945e+00  7.1420577161484857e+00  7.1420802845148401e+00  7.1421022187306091e+00  7.1421235365692874e+00  7.1421442553063121e+00  7.1421643917330577e+00  7.1421839621704208e+00  7.1422029824820390e+00  7.1422214680871239e+00  7.1422394339729314e+00  7.1422568947068958e+00  7.1422738644484003e+00  7.1422903569602196e+00  7.1423063856196567e+00  7.1423219634293451e+00  7.1423371030277609e+00  7.1423518166994286e+00  7.1423661163848386e+00  7.1423800136900999e+00  7.1423935198963049e+00  7.1424066459686371e+00  7.1424194025652286e+00  7.1424318000457534e+00  7.1424438484797923e+00  7.1424555576549569e+00  7.1424669370847829e+00  7.1424779960164138e+00  7.1424887434380482e+00  7.1424991880861990e+00  7.1425093384527383e+00  7.1425192027917337e+00  7.1425287891261169e+00  7.1425381052541468e+00  7.1425471587556988e+00  7.1425559569983781e+00  7.1425645071434518e+00  7.1425728161516249e+00  7.1425808907886550e+00  7.1425887376308035e+00  7.1425963630701315e+00  7.1426037733196628e+00  7.1426109744183774e+00  7.1426179722360903e+00  7.1426247724781771e+00  7.1426313806901778e+00  7.1426378022622572e+00  7.1426440424335604e+00  7.1426501062964265e+00  7.1426559988004978e+00  7.1426617247567057e+00  7.1426672888411584e+00  7.1426726955988959e+00  7.1426779494475721e+00  7.1426830546809903e+00  7.1426880154725927e+00  7.1426928358788091e+00  7.1426975198423310e+00  7.1427020711952940e+00  7.1427064936623612e+00  7.1427107908637391e+00  7.1427149663180840e+00  7.1427190234453493e+00  7.1427229655695426e+00  7.1427267959214040e+00  7.1427305176410183e+00  7.1427341337803441e+00  7.1427376473056796e+00  7.1427410611000601e+00  7.1427443779655748e+00  7.1427476006256443e+00  7.1427507317272019e+00  7.1427537738428519e+00  7.1427567294729268e+00  7.1427596010475183e+00  7.1427623909284428e+00  7.1427651014111433e+00  7.1427677347265508e+00  7.1427702930428749e+00  7.1427727784673758e+00  7.1427751930480552e+00  7.1427775387753130e+00  7.1427798175835591e+00  7.1427820313527857e+00  7.1427841819100717e+00  7.1427862710310830e+00  7.1427883004414898e+00  7.1427902718183747e+00  7.1427921867915867e+00  7.1427940469450686e+00  7.1427958538181269e+00  7.1427976089066894e+00  7.1427993136645167e+00  7.1428009695043713e+00  7.1428025777991770e+00  7.1428041398831219e+00  7.1428056570527412e+00  7.1428071305679746e+00  7.1428085616531805e+00  7.1428099514981369e+00  7.1428113012590027e+00  7.1428126120592585e+00  7.1428138849906135e+00  7.1428151211138999e+00  7.1428163214599243e+00  7.1428174870303147e+00  7.1428186187983336e+00  7.1428197177096564e+00  7.1428207846831482e+00  7.1428218206116165e+00  7.1428228263625266e+00  7.1428238027787083e+00  7.1428247506790488e+00  7.1428256708591418e+00  7.1428265640919504e+00  7.1428274311284250e+00  7.1428282726981189e+00  7.1428290895097728e+00  7.1428298822519070e+00  7.1428306515933579e+00  7.1428313981838363e+00  7.1428321226544531e+00  7.1428328256182301e+00  7.1428335076705913e+00  7.1428341693898538e+00  7.1428348113376936e+00  7.1428354340596005e+00  7.1428360380853206e+00  7.1428366239292824e+00  7.1428371920910108e+00  7.1428377430555399e+00  7.1428382772937979e+00  7.1428387952629864e+00  7.1428392974069528e+00  7.1428397841565454e+00  7.1428402559299595e+00  7.1428407131330784e+00  7.1428411561597835e+00  7.1428415853922971e+00  7.1428420012014699e+00  7.1428424039470704e+00  7.1428427939780930e+00  7.1428431716330198e+00  7.1428435372400996e+00  7.1428438911176002e+00  7.1428442335740767e+00  7.1428445649085894e+00  7.1428448854109643e+00  7.1428451953620140e+00  7.1428454950337468e+00  7.1428457846896025e+00  7.1428460645846377e+00  7.1428463349657436e+00  7.1428465960718182e+00  7.1428468481339671e+00  7.1428470913756774e+00  7.1428473260129932e+00  7.1428475522546746e+00  7.1428477703023709e+00  7.1428479803507603e+00  7.1428481825877119e+00  7.1428483771944222e+00  7.1428485643455550e+00  7.1428487442093687e+00  7.1428489169478446e+00  7.1428490827168210e+00  7.1428492416660943e+00  7.1428493939395370e+00  7.1428495396752076e+00  7.1428496790054483e+00  7.1428498120569879e+00  7.1428499389510325e+00  7.1428500598033553e+00  7.1428501747243809e+00  7.1428502838192696e+00  7.1428503871879867e+00  7.1428504849253853e+00  7.1428505771212656e+00  7.1428506638604468e+00  7.1428507452228267e+00  7.1428508212834343e+00  7.1428508921124880e+00  7.1428509577754484e+00  7.1428510183330607e+00  7.1428510738413973e+00  7.1428511243519024e+00  7.1428511699114257e+00  7.1428512105622559e+00  7.1428512463421496e+00  7.1428512772843620e+00  7.1428513034176619e+00  7.1428513247663616e+00  7.1428513413503278e+00  7.1428513531850024e+00  7.1428513602813997e+00  7.1428513626461312e+00  7.1428513602813979e+00  7.1428513531850015e+00  7.1428513413503270e+00  7.1428513247663599e+00  7.1428513034176593e+00  7.1428512772843620e+00  7.1428512463421514e+00  7.1428512105622568e+00  7.1428511699114257e+00  7.1428511243519033e+00  7.1428510738413955e+00  7.1428510183330598e+00  7.1428509577754475e+00  7.1428508921124880e+00  7.1428508212834361e+00  7.1428507452228294e+00  7.1428506638604494e+00  7.1428505771212683e+00  7.1428504849253871e+00  7.1428503871879885e+00  7.1428502838192705e+00  7.1428501747243818e+00  7.1428500598033553e+00  7.1428499389510316e+00  7.1428498120569870e+00  7.1428496790054448e+00  7.1428495396752032e+00  7.1428493939395343e+00  7.1428492416660925e+00  7.1428490827168192e+00  7.1428489169478429e+00  7.1428487442093651e+00  7.1428485643455524e+00  7.1428483771944213e+00  7.1428481825877119e+00  7.1428479803507594e+00  7.1428477703023701e+00  7.1428475522546746e+00  7.1428473260129914e+00  7.1428470913756765e+00  7.1428468481339662e+00  7.1428465960718190e+00  7.1428463349657445e+00  7.1428460645846386e+00  7.1428457846896016e+00  7.1428454950337450e+00  7.1428451953620096e+00  7.1428448854109634e+00  7.1428445649085877e+00  7.1428442335740749e+00  7.1428438911176011e+00  7.1428435372400960e+00  7.1428431716330172e+00  7.1428427939780912e+00  7.1428424039470713e+00  7.1428420012014708e+00  7.1428415853922989e+00  7.1428411561597835e+00  7.1428407131330784e+00  7.1428402559299613e+00  7.1428397841565454e+00  7.1428392974069537e+00  7.1428387952629864e+00  7.1428382772937979e+00  7.1428377430555399e+00  7.1428371920910116e+00  7.1428366239292815e+00  7.1428360380853224e+00  7.1428354340596032e+00  7.1428348113376945e+00  7.1428341693898538e+00  7.1428335076705913e+00  7.1428328256182319e+00  7.1428321226544567e+00  7.1428313981838381e+00  7.1428306515933588e+00  7.1428298822519096e+00  7.1428290895097772e+00  7.1428282726981234e+00  7.1428274311284303e+00  7.1428265640919530e+00  7.1428256708591453e+00  7.1428247506790497e+00  7.1428238027787101e+00  7.1428228263625257e+00  7.1428218206116139e+00  7.1428207846831455e+00  7.1428197177096520e+00  7.1428186187983327e+00  7.1428174870303156e+00  7.1428163214599252e+00  7.1428151211138999e+00  7.1428138849906135e+00  7.1428126120592594e+00  7.1428113012590071e+00  7.1428099514981378e+00  7.1428085616531805e+00  7.1428071305679746e+00  7.1428056570527430e+00  7.1428041398831246e+00  7.1428025777991815e+00  7.1428009695043757e+00  7.1427993136645167e+00  7.1427976089066902e+00  7.1427958538181286e+00  7.1427940469450704e+00  7.1427921867915893e+00  7.1427902718183756e+00  7.1427883004414907e+00  7.1427862710310865e+00  7.1427841819100761e+00  7.1427820313527874e+00  7.1427798175835626e+00  7.1427775387753147e+00  7.1427751930480587e+00  7.1427727784673785e+00  7.1427702930428767e+00  7.1427677347265517e+00  7.1427651014111451e+00  7.1427623909284446e+00  7.1427596010475192e+00  7.1427567294729259e+00  7.1427537738428528e+00  7.1427507317272045e+00  7.1427476006256443e+00  7.1427443779655766e+00  7.1427410611000610e+00  7.1427376473056805e+00  7.1427341337803441e+00  7.1427305176410174e+00  7.1427267959214031e+00  7.1427229655695408e+00  7.1427190234453475e+00  7.1427149663180796e+00  7.1427107908637346e+00  7.1427064936623585e+00  7.1427020711952904e+00  7.1426975198423284e+00  7.1426928358788073e+00  7.1426880154725918e+00  7.1426830546809912e+00  7.1426779494475729e+00  7.1426726955988986e+00  7.1426672888411593e+00  7.1426617247567075e+00  7.1426559988004978e+00  7.1426501062964256e+00  7.1426440424335587e+00  7.1426378022622563e+00  7.1426313806901760e+00  7.1426247724781753e+00  7.1426179722360885e+00  7.1426109744183766e+00  7.1426037733196628e+00  7.1425963630701332e+00  7.1425887376308035e+00  7.1425808907886541e+00  7.1425728161516222e+00  7.1425645071434483e+00  7.1425559569983728e+00  7.1425471587556935e+00  7.1425381052541423e+00  7.1425287891261124e+00  7.1425192027917310e+00  7.1425093384527365e+00  7.1424991880861999e+00  7.1424887434380473e+00  7.1424779960164146e+00  7.1424669370847838e+00  7.1424555576549551e+00  7.1424438484797923e+00  7.1424318000457534e+00  7.1424194025652250e+00  7.1424066459686344e+00  7.1423935198963013e+00  7.1423800136900972e+00  7.1423661163848360e+00  7.1423518166994260e+00  7.1423371030277591e+00  7.1423219634293424e+00  7.1423063856196531e+00  7.1422903569602161e+00  7.1422738644483958e+00  7.1422568947068932e+00  7.1422394339729287e+00  7.1422214680871186e+00  7.1422029824820363e+00  7.1421839621704182e+00  7.1421643917330568e+00  7.1421442553063139e+00  7.1421235365692866e+00  7.1421022187306100e+00  7.1420802845148392e+00  7.1420577161484831e+00  7.1420344953455901e+00  7.1420106032929409e+00  7.1419860206347936e+00  7.1419607274571968e+00  7.1419347032718292e+00  7.1419079269993917e+00  7.1418803769524866e+00  7.1418520308180256e+00  7.1418228656390896e+00  7.1417928577962950e+00  7.1417619829885979e+00  7.1417302162135128e+00  7.1416975317468028e+00  7.1416639031215379e+00  7.1416293031065488e+00  7.1415937036842472e+00  7.1415570760278024e+00  7.1415193904776393e+00  7.1414806165172600e+00  7.1414407227483254e+00  7.1413996768650430e+00  7.1413574456277749e+00  7.1413139948358699e+00  7.1412692892997036e+00  7.1412232928119028e+00  7.1411759681176790e+00  7.1411272768843626e+00  7.1410771796699386e+00  7.1410256358907498e+00  7.1409726037881711e+00  7.1409180403943315e+00  7.1408619014968258e+00  7.1408041416023513e+00  7.1407447138993012e+00  7.1406835702192097e+00  7.1406206609970839e+00  7.1405559352305437e+00  7.1404893404377399e+00  7.1404208226140176e+00  7.1403503261873071e+00  7.1402777939721558e+00  7.1402031671224204e+00  7.1401263850825085e+00  7.1400473855371853e+00  7.1399661043598721e+00  7.1398824755593990e+00  7.1397964312251467e+00  7.1397079014705609e+00  7.1396168143749552e+00  7.1395230959235665e+00  7.1394266699457933e+00  7.1393274580516159e+00  7.1392253795660352e+00  7.1391203514615853e+00  7.1390122882887779e+00  7.1389011021044295e+00  7.1387867023978844e+00  7.1386689960148981e+00  7.1385478870792953e+00  7.1384232769122136e+00  7.1382950639488829e+00  7.1381631436528892e+00  7.1380274084278161e+00  7.1378877475261779e+00  7.1377440469555919e+00  7.1375961893820703e+00  7.1374440540303370e+00  7.1372875165811180e+00  7.1371264490652422e+00  7.1369607197545228e+00  7.1367901930492561e+00  7.1366147293622770e+00  7.1364341849994082e+00  7.1362484120362488e+00  7.1360572581911352e+00  7.1358605666941717e+00  7.1356581761522300e+00  7.1354499204097008e+00  7.1352356284049820e+00  7.1350151240224635e+00  7.1347882259399329e+00  7.1345547474711815e+00  7.1343144964037535e+00  7.1340672748315734e+00  7.1338128789823587e+00  7.1335510990396296e+00  7.1332817189591209e+00  7.1330045162794438e+00  7.1327192619267814e+00  7.1324257200134431e+00  7.1321236476300554e+00  7.1318127946312160e+00  7.1314929034143635e+00  7.1311637086916440e+00  7.1308249372545660e+00  7.1304763077311879e+00  7.1301175303355828e+00  7.1297483066093692e+00  7.1293683291549952e+00  7.1289772813605268e+00  7.1285748371156696e+00  7.1281606605187129e+00  7.1277344055741256e+00  7.1272957158804457e+00  7.1268442243082131e+00  7.1263795526675313e+00  7.1259013113650047e+00  7.1254090990496177e+00  7.1249025022472443e+00  7.1243810949833968e+00  7.1238444383938200e+00  7.1232920803225062e+00  7.1227235549067682e+00  7.1221383821489006e+00  7.1215360674739845e+00  7.1209161012734059e+00  7.1202779584335838e+00  7.1196210978494330e+00  7.1189449619220770e+00  7.1182489760402374e+00  7.1175325480448244e+00  7.1167950676761258e+00  7.1160359060030567e+00  7.1152544148338350e+00  7.1144499261075467e+00  7.1136217512658808e+00  7.1127691806044622e+00  7.1118914826030837e+00  7.1109879032341254e+00  7.1100576652485064e+00  7.1090999674383912e+00  7.1081139838759162e+00  7.1070988631271605e+00  7.1060537274405489e+00  7.1049776719088