<?xml version="1.0"?>
<VTKFile type="UnstructuredGrid"  version="0.1"  >
<UnstructuredGrid>
<Piece  NumberOfPoints="1001" NumberOfCells="1000">
<Points>
<DataArray  type="Float64"  NumberOfComponents="3"  format="ascii">0 0 0  0.001 0 0  0.002 0 0  0.003 0 0  0.004 0 0  0.005 0 0  0.006 0 0  0.007 0 0  0.008 0 0  0.008999999999999999 0 0  0.01 0 0  0.011 0 0  0.012 0 0  0.013 0 0  0.014 0 0  0.015 0 0  0.016 0 0  0.017 0 0  0.018 0 0  0.019 0 0  0.02 0 0  0.021 0 0  0.022 0 0  0.023 0 0  0.024 0 0  0.025 0 0  0.026 0 0  0.027 0 0  0.028 0 0  0.029 0 0  0.03 0 0  0.031 0 0  0.032 0 0  0.033 0 0  0.034 0 0  0.035 0 0  0.036 0 0  0.037 0 0  0.038 0 0  0.039 0 0  0.04 0 0  0.041 0 0  0.042 0 0  0.043 0 0  0.044 0 0  0.045 0 0  0.046 0 0  0.047 0 0  0.048 0 0  0.049 0 0  0.05 0 0  0.051 0 0  0.052 0 0  0.053 0 0  0.054 0 0  0.055 0 0  0.056 0 0  0.057 0 0  0.058 0 0  0.059 0 0  0.06 0 0  0.061 0 0  0.062 0 0  0.063 0 0  0.064 0 0  0.065 0 0  0.066 0 0  0.067 0 0  0.068 0 0  0.06900000000000001 0 0  0.07000000000000001 0 0  0.07099999999999999 0 0  0.07199999999999999 0 0  0.073 0 0  0.074 0 0  0.075 0 0  0.076 0 0  0.077 0 0  0.078 0 0  0.079 0 0  0.08 0 0  0.081 0 0  0.082 0 0  0.083 0 0  0.08400000000000001 0 0  0.08500000000000001 0 0  0.08599999999999999 0 0  0.08699999999999999 0 0  0.08799999999999999 0 0  0.089 0 0  0.09 0 0  0.091 0 0  0.092 0 0  0.093 0 0  0.094 0 0  0.095 0 0  0.096 0 0  0.097 0 0  0.098 0 0  0.099 0 0  0.1 0 0  0.101 0 0  0.102 0 0  0.103 0 0  0.104 0 0  0.105 0 0  0.106 0 0  0.107 0 0  0.108 0 0  0.109 0 0  0.11 0 0  0.111 0 0  0.112 0 0  0.113 0 0  0.114 0 0  0.115 0 0  0.116 0 0  0.117 0 0  0.118 0 0  0.119 0 0  0.12 0 0  0.121 0 0  0.122 0 0  0.123 0 0  0.124 0 0  0.125 0 0  0.126 0 0  0.127 0 0  0.128 0 0  0.129 0 0  0.13 0 0  0.131 0 0  0.132 0 0  0.133 0 0  0.134 0 0  0.135 0 0  0.136 0 0  0.137 0 0  0.138 0 0  0.139 0 0  0.14 0 0  0.141 0 0  0.142 0 0  0.143 0 0  0.144 0 0  0.145 0 0  0.146 0 0  0.147 0 0  0.148 0 0  0.149 0 0  0.15 0 0  0.151 0 0  0.152 0 0  0.153 0 0  0.154 0 0  0.155 0 0  0.156 0 0  0.157 0 0  0.158 0 0  0.159 0 0  0.16 0 0  0.161 0 0  0.162 0 0  0.163 0 0  0.164 0 0  0.165 0 0  0.166 0 0  0.167 0 0  0.168 0 0  0.169 0 0  0.17 0 0  0.171 0 0  0.172 0 0  0.173 0 0  0.174 0 0  0.175 0 0  0.176 0 0  0.177 0 0  0.178 0 0  0.179 0 0  0.18 0 0  0.181 0 0  0.182 0 0  0.183 0 0  0.184 0 0  0.185 0 0  0.186 0 0  0.187 0 0  0.188 0 0  0.189 0 0  0.19 0 0  0.191 0 0  0.192 0 0  0.193 0 0  0.194 0 0  0.195 0 0  0.196 0 0  0.197 0 0  0.198 0 0  0.199 0 0  0.2 0 0  0.201 0 0  0.202 0 0  0.203 0 0  0.204 0 0  0.205 0 0  0.206 0 0  0.207 0 0  0.208 0 0  0.209 0 0  0.21 0 0  0.211 0 0  0.212 0 0  0.213 0 0  0.214 0 0  0.215 0 0  0.216 0 0  0.217 0 0  0.218 0 0  0.219 0 0  0.22 0 0  0.221 0 0  0.222 0 0  0.223 0 0  0.224 0 0  0.225 0 0  0.226 0 0  0.227 0 0  0.228 0 0  0.229 0 0  0.23 0 0  0.231 0 0  0.232 0 0  0.233 0 0  0.234 0 0  0.235 0 0  0.236 0 0  0.237 0 0  0.238 0 0  0.239 0 0  0.24 0 0  0.241 0 0  0.242 0 0  0.243 0 0  0.244 0 0  0.245 0 0  0.246 0 0  0.247 0 0  0.248 0 0  0.249 0 0  0.25 0 0  0.251 0 0  0.252 0 0  0.253 0 0  0.254 0 0  0.255 0 0  0.256 0 0  0.257 0 0  0.258 0 0  0.259 0 0  0.26 0 0  0.261 0 0  0.262 0 0  0.263 0 0  0.264 0 0  0.265 0 0  0.266 0 0  0.267 0 0  0.268 0 0  0.269 0 0  0.27 0 0  0.271 0 0  0.272 0 0  0.273 0 0  0.274 0 0  0.275 0 0  0.276 0 0  0.277 0 0  0.278 0 0  0.279 0 0  0.28 0 0  0.281 0 0  0.282 0 0  0.283 0 0  0.284 0 0  0.285 0 0  0.286 0 0  0.287 0 0  0.288 0 0  0.289 0 0  0.29 0 0  0.291 0 0  0.292 0 0  0.293 0 0  0.294 0 0  0.295 0 0  0.296 0 0  0.297 0 0  0.298 0 0  0.299 0 0  0.3 0 0  0.301 0 0  0.302 0 0  0.303 0 0  0.304 0 0  0.305 0 0  0.306 0 0  0.307 0 0  0.308 0 0  0.309 0 0  0.31 0 0  0.311 0 0  0.312 0 0  0.313 0 0  0.314 0 0  0.315 0 0  0.316 0 0  0.317 0 0  0.318 0 0  0.319 0 0  0.32 0 0  0.321 0 0  0.322 0 0  0.323 0 0  0.324 0 0  0.325 0 0  0.326 0 0  0.327 0 0  0.328 0 0  0.329 0 0  0.33 0 0  0.331 0 0  0.332 0 0  0.333 0 0  0.334 0 0  0.335 0 0  0.336 0 0  0.337 0 0  0.338 0 0  0.339 0 0  0.34 0 0  0.341 0 0  0.342 0 0  0.343 0 0  0.344 0 0  0.345 0 0  0.346 0 0  0.347 0 0  0.348 0 0  0.349 0 0  0.35 0 0  0.351 0 0  0.352 0 0  0.353 0 0  0.354 0 0  0.355 0 0  0.356 0 0  0.357 0 0  0.358 0 0  0.359 0 0  0.36 0 0  0.361 0 0  0.362 0 0  0.363 0 0  0.364 0 0  0.365 0 0  0.366 0 0  0.367 0 0  0.368 0 0  0.369 0 0  0.37 0 0  0.371 0 0  0.372 0 0  0.373 0 0  0.374 0 0  0.375 0 0  0.376 0 0  0.377 0 0  0.378 0 0  0.379 0 0  0.38 0 0  0.381 0 0  0.382 0 0  0.383 0 0  0.384 0 0  0.385 0 0  0.386 0 0  0.387 0 0  0.388 0 0  0.389 0 0  0.39 0 0  0.391 0 0  0.392 0 0  0.393 0 0  0.394 0 0  0.395 0 0  0.396 0 0  0.397 0 0  0.398 0 0  0.399 0 0  0.4 0 0  0.401 0 0  0.402 0 0  0.403 0 0  0.404 0 0  0.405 0 0  0.406 0 0  0.407 0 0  0.408 0 0  0.409 0 0  0.41 0 0  0.411 0 0  0.412 0 0  0.413 0 0  0.414 0 0  0.415 0 0  0.416 0 0  0.417 0 0  0.418 0 0  0.419 0 0  0.42 0 0  0.421 0 0  0.422 0 0  0.423 0 0  0.424 0 0  0.425 0 0  0.426 0 0  0.427 0 0  0.428 0 0  0.429 0 0  0.43 0 0  0.431 0 0  0.432 0 0  0.433 0 0  0.434 0 0  0.435 0 0  0.436 0 0  0.437 0 0  0.438 0 0  0.439 0 0  0.44 0 0  0.441 0 0  0.442 0 0  0.443 0 0  0.444 0 0  0.445 0 0  0.446 0 0  0.447 0 0  0.448 0 0  0.449 0 0  0.45 0 0  0.451 0 0  0.452 0 0  0.453 0 0  0.454 0 0  0.455 0 0  0.456 0 0  0.457 0 0  0.458 0 0  0.459 0 0  0.46 0 0  0.461 0 0  0.462 0 0  0.463 0 0  0.464 0 0  0.465 0 0  0.466 0 0  0.467 0 0  0.468 0 0  0.469 0 0  0.47 0 0  0.471 0 0  0.472 0 0  0.473 0 0  0.474 0 0  0.475 0 0  0.476 0 0  0.477 0 0  0.478 0 0  0.479 0 0  0.48 0 0  0.481 0 0  0.482 0 0  0.483 0 0  0.484 0 0  0.485 0 0  0.486 0 0  0.487 0 0  0.488 0 0  0.489 0 0  0.49 0 0  0.491 0 0  0.492 0 0  0.493 0 0  0.494 0 0  0.495 0 0  0.496 0 0  0.497 0 0  0.498 0 0  0.499 0 0  0.5 0 0  0.501 0 0  0.502 0 0  0.503 0 0  0.504 0 0  0.505 0 0  0.506 0 0  0.507 0 0  0.508 0 0  0.509 0 0  0.51 0 0  0.511 0 0  0.512 0 0  0.513 0 0  0.514 0 0  0.515 0 0  0.516 0 0  0.517 0 0  0.518 0 0  0.519 0 0  0.52 0 0  0.521 0 0  0.522 0 0  0.523 0 0  0.524 0 0  0.525 0 0  0.526 0 0  0.527 0 0  0.528 0 0  0.529 0 0  0.53 0 0  0.531 0 0  0.532 0 0  0.533 0 0  0.534 0 0  0.535 0 0  0.536 0 0  0.537 0 0  0.538 0 0  0.539 0 0  0.54 0 0  0.541 0 0  0.542 0 0  0.543 0 0  0.544 0 0  0.545 0 0  0.546 0 0  0.547 0 0  0.548 0 0  0.549 0 0  0.55 0 0  0.551 0 0  0.552 0 0  0.553 0 0  0.554 0 0  0.555 0 0  0.556 0 0  0.5570000000000001 0 0  0.5580000000000001 0 0  0.5590000000000001 0 0  0.5600000000000001 0 0  0.5610000000000001 0 0  0.5620000000000001 0 0  0.5629999999999999 0 0  0.5639999999999999 0 0  0.5649999999999999 0 0  0.5659999999999999 0 0  0.5669999999999999 0 0  0.5679999999999999 0 0  0.569 0 0  0.57 0 0  0.571 0 0  0.572 0 0  0.573 0 0  0.574 0 0  0.575 0 0  0.576 0 0  0.577 0 0  0.578 0 0  0.579 0 0  0.58 0 0  0.581 0 0  0.582 0 0  0.583 0 0  0.584 0 0  0.585 0 0  0.586 0 0  0.587 0 0  0.588 0 0  0.589 0 0  0.59 0 0  0.591 0 0  0.592 0 0  0.593 0 0  0.594 0 0  0.595 0 0  0.596 0 0  0.597 0 0  0.598 0 0  0.599 0 0  0.6 0 0  0.601 0 0  0.602 0 0  0.603 0 0  0.604 0 0  0.605 0 0  0.606 0 0  0.607 0 0  0.608 0 0  0.609 0 0  0.61 0 0  0.611 0 0  0.612 0 0  0.613 0 0  0.614 0 0  0.615 0 0  0.616 0 0  0.617 0 0  0.618 0 0  0.619 0 0  0.62 0 0  0.621 0 0  0.622 0 0  0.623 0 0  0.624 0 0  0.625 0 0  0.626 0 0  0.627 0 0  0.628 0 0  0.629 0 0  0.63 0 0  0.631 0 0  0.632 0 0  0.633 0 0  0.634 0 0  0.635 0 0  0.636 0 0  0.637 0 0  0.638 0 0  0.639 0 0  0.64 0 0  0.641 0 0  0.642 0 0  0.643 0 0  0.644 0 0  0.645 0 0  0.646 0 0  0.647 0 0  0.648 0 0  0.649 0 0  0.65 0 0  0.651 0 0  0.652 0 0  0.653 0 0  0.654 0 0  0.655 0 0  0.656 0 0  0.657 0 0  0.658 0 0  0.659 0 0  0.66 0 0  0.661 0 0  0.662 0 0  0.663 0 0  0.664 0 0  0.665 0 0  0.666 0 0  0.667 0 0  0.668 0 0  0.669 0 0  0.67 0 0  0.671 0 0  0.672 0 0  0.673 0 0  0.674 0 0  0.675 0 0  0.676 0 0  0.677 0 0  0.678 0 0  0.679 0 0  0.68 0 0  0.681 0 0  0.6820000000000001 0 0  0.6830000000000001 0 0  0.6840000000000001 0 0  0.6850000000000001 0 0  0.6860000000000001 0 0  0.6870000000000001 0 0  0.6879999999999999 0 0  0.6889999999999999 0 0  0.6899999999999999 0 0  0.6909999999999999 0 0  0.6919999999999999 0 0  0.6929999999999999 0 0  0.694 0 0  0.695 0 0  0.696 0 0  0.697 0 0  0.698 0 0  0.699 0 0  0.7 0 0  0.701 0 0  0.702 0 0  0.703 0 0  0.704 0 0  0.705 0 0  0.706 0 0  0.707 0 0  0.708 0 0  0.709 0 0  0.71 0 0  0.711 0 0  0.712 0 0  0.713 0 0  0.714 0 0  0.715 0 0  0.716 0 0  0.717 0 0  0.718 0 0  0.719 0 0  0.72 0 0  0.721 0 0  0.722 0 0  0.723 0 0  0.724 0 0  0.725 0 0  0.726 0 0  0.727 0 0  0.728 0 0  0.729 0 0  0.73 0 0  0.731 0 0  0.732 0 0  0.733 0 0  0.734 0 0  0.735 0 0  0.736 0 0  0.737 0 0  0.738 0 0  0.739 0 0  0.74 0 0  0.741 0 0  0.742 0 0  0.743 0 0  0.744 0 0  0.745 0 0  0.746 0 0  0.747 0 0  0.748 0 0  0.749 0 0  0.75 0 0  0.751 0 0  0.752 0 0  0.753 0 0  0.754 0 0  0.755 0 0  0.756 0 0  0.757 0 0  0.758 0 0  0.759 0 0  0.76 0 0  0.761 0 0  0.762 0 0  0.763 0 0  0.764 0 0  0.765 0 0  0.766 0 0  0.767 0 0  0.768 0 0  0.769 0 0  0.77 0 0  0.771 0 0  0.772 0 0  0.773 0 0  0.774 0 0  0.775 0 0  0.776 0 0  0.777 0 0  0.778 0 0  0.779 0 0  0.78 0 0  0.781 0 0  0.782 0 0  0.783 0 0  0.784 0 0  0.785 0 0  0.786 0 0  0.787 0 0  0.788 0 0  0.789 0 0  0.79 0 0  0.791 0 0  0.792 0 0  0.793 0 0  0.794 0 0  0.795 0 0  0.796 0 0  0.797 0 0  0.798 0 0  0.799 0 0  0.8 0 0  0.801 0 0  0.802 0 0  0.803 0 0  0.804 0 0  0.805 0 0  0.806 0 0  0.8070000000000001 0 0  0.8080000000000001 0 0  0.8090000000000001 0 0  0.8100000000000001 0 0  0.8110000000000001 0 0  0.8120000000000001 0 0  0.8129999999999999 0 0  0.8139999999999999 0 0  0.8149999999999999 0 0  0.8159999999999999 0 0  0.8169999999999999 0 0  0.8179999999999999 0 0  0.819 0 0  0.82 0 0  0.821 0 0  0.822 0 0  0.823 0 0  0.824 0 0  0.825 0 0  0.826 0 0  0.827 0 0  0.828 0 0  0.829 0 0  0.83 0 0  0.831 0 0  0.832 0 0  0.833 0 0  0.834 0 0  0.835 0 0  0.836 0 0  0.837 0 0  0.838 0 0  0.839 0 0  0.84 0 0  0.841 0 0  0
[...]
<PointData  Scalars="f_20-0"> 
<DataArray  type="Float64"  Name="f_20-0"  format="ascii">2.0005574130397767e+00  2.0005608549946747e+00  2.0005712192606060e+00  2.0005886214161821e+00  2.0006132553450540e+00  2.0006453951252241e+00  2.0006853976948968e+00  2.0007337063157378e+00  2.0007908548605884e+00  2.0008574729589008e+00  2.0009342920395317e+00  2.0010221523170486e+00  2.0011220107744241e+00  2.0012349502018525e+00  2.0013621893585110e+00  2.0015050943313595e+00  2.0016651911725498e+00  2.0018441799046625e+00  2.0020439499908527e+00  2.0022665973749123e+00  2.0025144432043840e+00  2.0027900543579262e+00  2.0030962659062563e+00  2.0034362056439203e+00  2.0038133208368687e+00  2.0042314073380911e+00  2.0046946412302904e+00  2.0052076131604597e+00  2.0057753655360195e+00  2.0064034327555662e+00  2.0070978846488217e+00  2.0078653732997247e+00  2.0087131834230254e+00  2.0096492864578588e+00  2.0106823985306121e+00  2.0118220424233169e+00  2.0130786136616972e+00  2.0144634508078787e+00  2.0159889100054045e+00  2.0176684437771439e+00  2.0195166840186070e+00  2.0215495290582206e+00  2.0237842345707784e+00  2.0262395080285200e+00  2.0289356062542567e+00  2.0318944355008073e+00  2.0351396533188275e+00  2.0386967712892377e+00  2.0425932574855761e+00  2.0468586372948256e+00  2.0515245909622837e+00  2.0566250459377216e+00  2.0621962617881828e+00  2.0682769051108152e+00  2.0749081115324954e+00  2.0821335315291742e+00  2.0899993564473425e+00  2.0985543207758339e+00  2.1078496764152246e+00  2.1179391344441960e+00  2.1288787697111871e+00  2.1407268835120417e+00  2.1535438196796926e+00  2.1673917296410945e+00  2.1823342824208471e+00  2.1984363162194085e+00  2.2157634290915058e+00  2.2343815074147684e+00  2.2543561922767599e+00  2.2757522856133088e+00  2.2986330998779048e+00  2.3230597571667619e+00  2.3490904460009840e+00  2.3767796462890094e+00  2.4061773352520448e+00  2.4373281891700924e+00  2.4702707975648415e+00  2.5050369077460948e+00  2.5416507183882571e+00  2.5801282408711250e+00  2.6204767464449934e+00  2.6626943158344529e+00  2.7067695056963612e+00  2.7526811434627021e+00  2.8003982586439862e+00  2.8498801548000872e+00  2.9010766222902653e+00  2.9539282877964732e+00  3.0083670926791619e+00  3.0643168886633201e+00  3.1216941363268726e+00  3.1804086894970549e+00  3.2403646470303684e+00  3.3014612525868423e+00  3.3635938228923208e+00  3.4266546855550448e+00  3.4905341086741588e+00  3.5551212061351278e+00  3.6203048045049817e+00  3.6859742596916512e+00  3.7520202138945766e+00  3.8183352857397219e+00  3.8848146887687336e+00  3.9513567755668371e+00  4.0178635067141011e+00  4.0842408453964776e+00  4.1503990798995476e+00  4.2162530773273259e+00  4.2817224727499141e+00  4.3467317986055445e+00  4.4112105595883468e+00  4.4750932584703751e+00  4.5383193783638553e+00  4.6008333268556161e+00  4.6625843472674848e+00  4.7235264020389467e+00  4.7836180329135507e+00  4.8428222022579730e+00  4.9011061194679977e+00  4.9584410560329379e+00  5.0148021524490094e+00  5.0701682198020386e+00  5.1245215384858511e+00  5.1778476561898223e+00  5.2301351869797239e+00  5.2813756130118437e+00  5.3315630901622448e+00  5.3806942586205082e+00  5.4287680592896583e+00  5.4757855566505045e+00  5.5217497685871972e+00  5.5666655035304951e+00  5.6105392051539935e+00  5.6533788047546016e+00  5.6951935813606545e+00  5.7359940295368981e+00  5.7757917347941952e+00  5.8145992564613582e+00  5.8524300178359772e+00  5.8892982033988028e+00  5.9252186628515719e+00  5.9602068217195852e+00  5.9942785982474289e+00  6.0274503263077186e+00  6.0597386840382930e+00  6.0911606279219921e+00  6.1217333320246761e+00  6.1514741321106774e+00  6.1804004743605230e+00  6.2085298684225005e+00  6.2358798445378145e+00  6.2624679144878064e+00  6.2883115361213529e+00  6.3134280812303460e+00  6.3378348065514389e+00  6.3615488276825394e+00  6.3845870957128206e+00  6.4069663763753439e+00  6.4287032315414230e+00  6.4498140028858444e+00  6.4703147975615662e+00  6.4902214757319614e+00  6.5095496398176405e+00  6.5283146253235156e+00  6.5465314931201801e+00  6.5642150230614948e+00  6.5813797088279458e+00  6.5980397538925013e+00  6.6142090685125652e+00  6.6299012676580755e+00  6.6451296697919977e+00  6.6599072964251880e+00  6.6742468723731214e+00  6.6881608266471604e+00  6.7016612939177929e+00  6.7147601164919273e+00  6.7274688467505790e+00  6.7397987499972727e+00  6.7517608076712463e+00  6.7633657208831357e+00  6.7746239142340032e+00  6.7855455398817268e+00  6.7961404818216211e+00  6.8064183603508486e+00  6.8163885366886081e+00  6.8260601177265645e+00  6.8354419608860075e+00  6.8445426790602779e+00  6.8533706456229746e+00  6.8619339994840223e+00  6.8702406501774504e+00  6.8782982829661670e+00  6.8861143639503641e+00  6.8936961451675547e+00  6.9010506696733973e+00  6.9081847765935409e+00  6.9151051061377666e+00  6.9218181045686578e+00  6.9283300291178564e+00  6.9346469528437948e+00  6.9407747694254960e+00  6.9467191978877656e+00  6.9524857872536456e+00  6.9580799211206239e+00  6.9635068221576333e+00  6.9687715565202648e+00  6.9738790381821740e+00  6.9788340331809353e+00  6.9836411637771185e+00  6.9883049125255008e+00  6.9928296262578211e+00  6.9972195199766221e+00  7.0014786806600249e+00  7.0056110709775190e+00  7.0096205329170287e+00  7.0135107913236725e+00  7.0172854573508774e+00  7.0209480318245712e+00  7.0245019085213372e+00  7.0279503773615186e+00  7.0312966275184108e+00  7.0345437504446915e+00  7.0376947428173526e+00  7.0407525094024672e+00  7.0437198658411946e+00  7.0465995413584226e+00  7.0493941813955372e+00  7.0521063501688168e+00  7.0547385331549828e+00  7.0572931395054308e+00  7.0597725043907431e+00  7.0621788912770116e+00  7.0645144941355644e+00  7.0667814395876594e+00  7.0689817889857194e+00  7.0711175404326498e+00  7.0731906307408288e+00  7.0752029373322598e+00  7.0771562800814314e+00  7.0790524231023904e+00  7.0808930764815079e+00  7.0826798979574166e+00  7.0844144945495060e+00  7.0860984241364857e+00  7.0877331969863118e+00  7.0893202772389259e+00  7.0908610843430804e+00  7.0923569944486307e+00  7.0938093417555192e+00  7.0952194198207499e+00  7.0965884828245844e+00  7.0979177467971333e+00  7.0992083908065649e+00  7.1004615581100223e+00  7.1016783572684385e+00  7.1028598632262678e+00  7.1040071183572486e+00  7.1051211334772288e+00  7.1062028888250257e+00  7.1072533350123557e+00  7.1082733939437563e+00  7.1092639597074294e+00  7.1102258994379426e+00  7.1111600541516129e+00  7.1120672395554845e+00  7.1129482468307037e+00  7.1138038433910680e+00  7.1146347736176034e+00  7.1154417595698476e+00  7.1162255016746405e+00  7.1169866793931096e+00  7.1177259518665270e+00  7.1184439585417421e+00  7.1191413197768476e+00  7.1198186374276409e+00  7.1204764954156099e+00  7.1211154602779168e+00  7.1217360817000488e+00  7.1223388930316300e+00  7.1229244117859691e+00  7.1234931401238724e+00  7.1240455653221737e+00  7.1245821602275523e+00  7.1251033836960440e+00  7.1256096810187435e+00  7.1261014843341348e+00  7.1265792130274717e+00  7.1270432741176375e+00  7.1274940626318788e+00  7.1279319619688062e+00  7.1283573442500465e+00  7.1287705706608993e+00  7.1291719917803595e+00  7.1295619479008598e+00  7.1299407693380230e+00  7.1303087767308035e+00  7.1306662813322825e+00  7.1310135852914387e+00  7.1313509819261629e+00  7.1316787559878305e+00  7.1319971839176697e+00  7.1323065340952159e+00  7.1326070670790731e+00  7.1328990358402731e+00  7.1331826859884142e+00  7.1334582559908775e+00  7.1337259773852528e+00  7.1339860749852937e+00  7.1342387670805216e+00  7.1344842656297232e+00  7.1347227764485375e+00  7.1349544993912826e+00  7.1351796285272782e+00  7.1353983523117384e+00  7.1356108537514951e+00  7.1358173105656784e+00  7.1360178953414923e+00  7.1362127756852862e+00  7.1364021143690426e+00  7.1365860694724148e+00  7.1367647945204986e+00  7.1369384386174080e+00  7.1371071465758531e+00  7.1372710590427815e+00  7.1374303126212775e+00  7.1375850399887524e+00  7.1377353700116144e+00  7.1378814278565015e+00  7.1380233350981603e+00  7.1381612098241032e+00  7.1382951667361647e+00  7.1384253172489736e+00  7.1385517695855354e+00  7.1386746288699268e+00  7.1387939972172729e+00  7.1389099738210211e+00  7.1390226550376168e+00  7.1391321344686949e+00  7.1392385030408043e+00  7.1393418490828049e+00  7.1394422584009387e+00  7.1395398143517124e+00  7.1396345979126172e+00  7.1397266877507564e+00  7.1398161602894570e+00  7.1399030897729334e+00  7.1399875483290227e+00  7.1400696060301021e+00  7.1401493309522008e+00  7.1402267892323934e+00  7.1403020451244981e+00  7.1403751610531527e+00  7.1404461976663098e+00  7.1405152138861911e+00  7.1405822669587549e+00  7.1406474125017443e+00  7.1407107045512861e+00  7.1407721956071839e+00  7.1408319366768644e+00  7.1408899773180519e+00  7.1409463656802048e+00  7.1410011485447509e+00  7.1410543713641470e+00  7.1411060782998250e+00  7.1411563122590147e+00  7.1412051149305267e+00  7.1412525268194678e+00  7.1412985872810015e+00  7.1413433345530768e+00  7.1413868057882581e+00  7.1414290370846221e+00  7.1414700635157438e+00  7.1415099191598630e+00  7.1415486371281718e+00  7.1415862495923061e+00  7.1416227878110421e+00  7.1416582821562331e+00  7.1416927621379989e+00  7.1417262564291812e+00  7.1417587928891288e+00  7.1417903985867568e+00  7.1418210998229812e+00  7.1418509221525008e+00  7.1418798904049599e+00  7.1419080287054806e+00  7.1419353604946627e+00  7.1419619085479482e+00  7.1419876949944907e+00  7.1420127413354413e+00  7.1420370684617467e+00  7.1420606966714129e+00  7.1420836456863075e+00  7.1421059346684510e+00  7.1421275822358714e+00  7.1421486064779964e+00  7.1421690249706007e+00  7.1421888547903523e+00  7.1422081125289125e+00  7.1422268143066594e+00  7.1422449757860260e+00  7.1422626121844353e+00  7.1422797382868897e+00  7.1422963684581910e+00  7.1423125166548225e+00  7.1423281964364911e+00  7.1423434209773422e+00  7.1423582030768484e+00  7.1423725551703967e+00  7.1423864893395930e+00  7.1424000173222311e+00  7.1424131505220236e+00  7.1424259000180221e+00  7.1424382765738033e+00  7.1424502906463561e+00  7.1424619523947523e+00  7.1424732716885453e+00  7.1424842581159398e+00  7.1424949209917266e+00  7.1425052693649960e+00  7.1425153120266227e+00  7.1425250575165444e+00  7.1425345141308263e+00  7.1425436899285231e+00  7.1425525927383493e+00  7.1425612301651515e+00  7.1425696095961930e+00  7.1425777382072644e+00  7.1425856229686149e+00  7.1425932706506954e+00  7.1426006878297628e+00  7.1426078808932836e+00  7.1426148560452223e+00  7.1426216193111207e+00  7.1426281765430835e+00  7.1426345334245731e+00  7.1426406954750714e+00  7.1426466680546055e+00  7.1426524563681379e+00  7.1426580654698197e+00  7.1426635002671066e+00  7.1426687655247569e+00  7.1426738658686970e+00  7.1426788057897710e+00  7.1426835896473673e+00  7.1426882216729339e+00  7.1426927059733716e+00  7.1426970465343231e+00  7.1427012472233526e+00  7.1427053117930157e+00  7.1427092438838384e+00  7.1427130470271658e+00  7.1427167246479515e+00  7.1427202800674126e+00  7.1427237165056239e+00  7.1427270370839890e+00  7.1427302448276420e+00  7.1427333426677606e+00  7.1427363334437723e+00  7.1427392199055069e+00  7.1427420047152497e+00  7.1427446904497058e+00  7.1427472796019167e+00  7.1427497745830708e+00  7.1427521777242537e+00  7.1427544912781276e+00  7.1427567174205420e+00  7.1427588582520638e+00  7.1427609157994567e+00  7.1427628920170871e+00  7.1427647887882726e+00  7.1427666079265597e+00  7.1427683511769642e+00  7.1427700202171200e+00  7.1427716166584112e+00  7.1427731420470151e+00  7.1427745978649240e+00  7.1427759855308892e+00  7.1427773064013325e+00  7.1427785617712036e+00  7.1427797528748016e+00  7.1427808808865203e+00  7.1427819469215956e+00  7.1427829520367796e+00  7.1427838972309745e+00  7.1427847834458387e+00  7.1427856115663442e+00  7.1427863824213116e+00  7.1427870967838851e+00  7.1427877553719803e+00  7.1427883588487173e+00  7.1427889078227924e+00  7.1427894028488232e+00  7.1427898444276750e+00  7.1427902330067354e+00  7.1427905689801685e+00  7.1427908526891457e+00  7.1427910844220257e+00  7.1427912644145151e+00  7.1427913928498130e+00  7.1427914698586985e+00  7.1427914955196110e+00  7.1427914698586950e+00  7.1427913928498086e+00  7.1427912644145142e+00  7.1427910844220239e+00  7.1427908526891457e+00  7.1427905689801694e+00  7.1427902330067363e+00  7.1427898444276776e+00  7.1427894028488241e+00  7.1427889078227933e+00  7.1427883588487173e+00  7.1427877553719767e+00  7.1427870967838798e+00  7.1427863824213098e+00  7.1427856115663442e+00  7.1427847834458369e+00  7.1427838972309736e+00  7.1427829520367796e+00  7.1427819469215956e+00  7.1427808808865176e+00  7.1427797528747980e+00  7.1427785617712019e+00  7.1427773064013289e+00  7.1427759855308866e+00  7.1427745978649222e+00  7.1427731420470142e+00  7.1427716166584077e+00  7.1427700202171183e+00  7.1427683511769660e+00  7.1427666079265641e+00  7.1427647887882744e+00  7.1427628920170880e+00  7.1427609157994567e+00  7.1427588582520611e+00  7.1427567174205384e+00  7.1427544912781267e+00  7.1427521777242529e+00  7.1427497745830717e+00  7.1427472796019185e+00  7.1427446904497076e+00  7.1427420047152488e+00  7.1427392199055078e+00  7.1427363334437715e+00  7.1427333426677597e+00  7.1427302448276428e+00  7.1427270370839873e+00  7.1427237165056212e+00  7.1427202800674099e+00  7.1427167246479470e+00  7.1427130470271631e+00  7.1427092438838367e+00  7.1427053117930139e+00  7.1427012472233509e+00  7.1426970465343222e+00  7.1426927059733707e+00  7.1426882216729322e+00  7.1426835896473628e+00  7.1426788057897674e+00  7.1426738658686926e+00  7.1426687655247507e+00  7.1426635002671013e+00  7.1426580654698144e+00  7.1426524563681317e+00  7.1426466680545984e+00  7.1426406954750679e+00  7.1426345334245722e+00  7.1426281765430844e+00  7.1426216193111198e+00  7.1426148560452214e+00  7.1426078808932836e+00  7.1426006878297610e+00  7.1425932706506963e+00  7.1425856229686140e+00  7.1425777382072635e+00  7.1425696095961895e+00  7.1425612301651489e+00  7.1425525927383493e+00  7.1425436899285248e+00  7.1425345141308290e+00  7.1425250575165489e+00  7.1425153120266245e+00  7.1425052693649977e+00  7.1424949209917266e+00  7.1424842581159389e+00  7.1424732716885462e+00  7.1424619523947532e+00  7.1424502906463552e+00  7.1424382765738033e+00  7.1424259000180239e+00  7.1424131505220210e+00  7.1424000173222302e+00  7.1423864893395921e+00  7.1423725551703985e+00  7.1423582030768484e+00  7.1423434209773422e+00  7.1423281964364920e+00  7.1423125166548216e+00  7.1422963684581866e+00  7.1422797382868870e+00  7.1422626121844335e+00  7.1422449757860225e+00  7.1422268143066567e+00  7.1422081125289099e+00  7.1421888547903514e+00  7.1421690249706007e+00  7.1421486064779938e+00  7.1421275822358696e+00  7.1421059346684501e+00  7.1420836456863075e+00  7.1420606966714129e+00  7.1420370684617476e+00  7.1420127413354439e+00  7.1419876949944934e+00  7.1419619085479509e+00  7.1419353604946627e+00  7.1419080287054797e+00  7.1418798904049599e+00  7.1418509221525035e+00  7.1418210998229839e+00  7.1417903985867603e+00  7.1417587928891315e+00  7.1417262564291830e+00  7.1416927621379980e+00  7.1416582821562322e+00  7.1416227878110421e+00  7.1415862495923070e+00  7.1415486371281727e+00  7.1415099191598639e+00  7.1414700635157438e+00  7.1414290370846176e+00  7.1413868057882564e+00  7.1413433345530750e+00  7.1412985872809989e+00  7.1412525268194678e+00  7.1412051149305276e+00  7.1411563122590174e+00  7.1411060782998250e+00  7.1410543713641479e+00  7.1410011485447500e+00  7.1409463656802048e+00  7.1408899773180519e+00  7.1408319366768662e+00  7.1407721956071857e+00  7.1407107045512861e+00  7.1406474125017452e+00  7.1405822669587584e+00  7.1405152138861911e+00  7.1404461976663081e+00  7.1403751610531518e+00  7.1403020451244972e+00  7.1402267892323907e+00  7.1401493309521982e+00  7.1400696060300985e+00  7.1399875483290192e+00  7.1399030897729325e+00  7.1398161602894570e+00  7.1397266877507573e+00  7.1396345979126199e+00  7.1395398143517186e+00  7.1394422584009396e+00  7.1393418490828049e+00  7.1392385030408052e+00  7.1391321344686958e+00  7.1390226550376186e+00  7.1389099738210247e+00  7.1387939972172756e+00  7.1386746288699277e+00  7.1385517695855372e+00  7.1384253172489771e+00  7.1382951667361656e+00  7.1381612098241023e+00  7.1380233350981532e+00  7.1378814278564970e+00  7.1377353700116108e+00  7.1375850399887497e+00  7.1374303126212784e+00  7.1372710590427815e+00  7.1371071465758522e+00  7.1369384386174062e+00  7.1367647945204942e+00  7.1365860694724104e+00  7.1364021143690373e+00  7.1362127756852853e+00  7.1360178953414906e+00  7.1358173105656793e+00  7.1356108537514960e+00  7.1353983523117366e+00  7.1351796285272782e+00  7.1349544993912826e+00  7.1347227764485366e+00  7.1344842656297249e+00  7.1342387670805243e+00  7.1339860749852964e+00  7.1337259773852546e+00  7.1334582559908783e+00  7.1331826859884151e+00  7.1328990358402686e+00  7.1326070670790696e+00  7.1323065340952123e+00  7.1319971839176652e+00  7.1316787559878270e+00  7.1313509819261611e+00  7.1310135852914378e+00  7.1306662813322816e+00  7.1303087767308027e+00  7.1299407693380230e+00  7.1295619479008581e+00  7.1291719917803587e+00  7.1287705706608984e+00  7.1283573442500447e+00  7.1279319619688035e+00  7.1274940626318770e+00  7.1270432741176357e+00  7.1265792130274725e+00  7.1261014843341348e+00  7.1256096810187444e+00  7.1251033836960440e+00  7.1245821602275550e+00  7.1240455653221755e+00  7.1234931401238750e+00  7.1229244117859718e+00  7.1223388930316291e+00  7.1217360817000461e+00  7.1211154602779159e+00  7.1204764954156063e+00  7.1198186374276391e+00  7.1191413197768467e+00  7.1184439585417456e+00  7.1177259518665288e+00  7.1169866793931105e+00  7.1162255016746423e+00  7.1154417595698467e+00  7.1146347736176043e+00  7.1138038433910689e+00  7.1129482468307037e+00  7.1120672395554863e+00  7.1111600541516138e+00  7.1102258994379417e+00  7.1092639597074321e+00  7.1082733939437572e+00  7.1072533350123583e+00  7.1062028888250275e+00  7.1051211334772315e+00  7.1040071183572513e+00  7.1028598632262687e+00  7.1016783572684385e+00  7.1004615581100206e+00  7.0992083908065622e+00  7.0979177467971333e+00  7.0965884828245835e+00  7.0952194198207517e+00  7.0938093417555210e+00  7.0923569944486333e+00  7.0908610843430830e+00  7.0893202772389259e+00  7.0877331969863118e+00  7.0860984241364848e+00  7.0844144945495060e+00  7.0826798979574122e+00  7.0808930764815061e+00  7.0790524231023859e+00  7.0771562800814287e+00  7.0752029373322589e+00  7.0731906307408297e+00  7.0711175404326498e+00  7.0689817889857194e+00  7.0667814395876594e+00  7.0645144941355644e+00  7.0621788912770116e+00  7.0597725043907404e+00  7.0572931395054299e+00  7.0547385331549810e+00  7.0521063501688159e+00  7.0493941813955345e+00  7.0465995413584208e+00  7.0437198658411955e+00  7.0407525094024699e+00  7.0376947428173553e+00  7.0345437504446959e+00  7.0312966275184143e+00  7.0279503773615195e+00  7.0245019085213363e+00  7.0209480318245721e+00  7.0172854573508747e+00  7.0135107913236698e+00  7.0096205329170296e+00  7.0056110709775217e+00  7.0014786806600267e+00  6.9972195199766221e+00  6.9928296262578238e+00  6.9883049125255008e+00  6.9836411637771185e+00  6.9788340331809353e+00  6.9738790381821740e+00  6.9687715565202657e+00  6.9635068221576315e+00  6.9580799211206221e+00  6.9524857872536465e+00  6.9467191978877683e+00  6.9407747694255004e+00  6.9346469528437966e+00  6.9283300291178618e+00  6.9218181045686622e+00  6.9151051061377729e+00  6.9081847765935480e+00  6.9010506696734035e+00  6.8936961451675574e+00  6.8861143639503641e+00  6.8782982829661670e+00  6.8702406501774504e+00  6.8619339994840223e+00  6.8533706456229746e+00  6.8445426790602832e+00  6.8354419608860084e+00  6.8260601177265681e+00  6.8163885366886072e+00  6.8064183603508477e+00  6.7961404818216211e+00  6.7855455398817250e+00  6.7746239142340032e+00  6.7633657208831366e+00  6.7517608076712463e+00  6.7397987499972718e+00  6.7274688467505790e+00  6.7147601164919255e+00  6.7016612939177937e+00  6.6881608266471639e+00  6.6742468723731250e+00  6.6599072964251