<?xml version="1.0"?>
<VTKFile type="UnstructuredGrid"  version="0.1"  >
<UnstructuredGrid>
<Piece  NumberOfPoints="1001" NumberOfCells="1000">
<Points>
<DataArray  type="Float64"  NumberOfComponents="3"  format="ascii">0 0 0  0.001 0 0  0.002 0 0  0.003 0 0  0.004 0 0  0.005 0 0  0.006 0 0  0.007 0 0  0.008 0 0  0.008999999999999999 0 0  0.01 0 0  0.011 0 0  0.012 0 0  0.013 0 0  0.014 0 0  0.015 0 0  0.016 0 0  0.017 0 0  0.018 0 0  0.019 0 0  0.02 0 0  0.021 0 0  0.022 0 0  0.023 0 0  0.024 0 0  0.025 0 0  0.026 0 0  0.027 0 0  0.028 0 0  0.029 0 0  0.03 0 0  0.031 0 0  0.032 0 0  0.033 0 0  0.034 0 0  0.035 0 0  0.036 0 0  0.037 0 0  0.038 0 0  0.039 0 0  0.04 0 0  0.041 0 0  0.042 0 0  0.043 0 0  0.044 0 0  0.045 0 0  0.046 0 0  0.047 0 0  0.048 0 0  0.049 0 0  0.05 0 0  0.051 0 0  0.052 0 0  0.053 0 0  0.054 0 0  0.055 0 0  0.056 0 0  0.057 0 0  0.058 0 0  0.059 0 0  0.06 0 0  0.061 0 0  0.062 0 0  0.063 0 0  0.064 0 0  0.065 0 0  0.066 0 0  0.067 0 0  0.068 0 0  0.06900000000000001 0 0  0.07000000000000001 0 0  0.07099999999999999 0 0  0.07199999999999999 0 0  0.073 0 0  0.074 0 0  0.075 0 0  0.076 0 0  0.077 0 0  0.078 0 0  0.079 0 0  0.08 0 0  0.081 0 0  0.082 0 0  0.083 0 0  0.08400000000000001 0 0  0.08500000000000001 0 0  0.08599999999999999 0 0  0.08699999999999999 0 0  0.08799999999999999 0 0  0.089 0 0  0.09 0 0  0.091 0 0  0.092 0 0  0.093 0 0  0.094 0 0  0.095 0 0  0.096 0 0  0.097 0 0  0.098 0 0  0.099 0 0  0.1 0 0  0.101 0 0  0.102 0 0  0.103 0 0  0.104 0 0  0.105 0 0  0.106 0 0  0.107 0 0  0.108 0 0  0.109 0 0  0.11 0 0  0.111 0 0  0.112 0 0  0.113 0 0  0.114 0 0  0.115 0 0  0.116 0 0  0.117 0 0  0.118 0 0  0.119 0 0  0.12 0 0  0.121 0 0  0.122 0 0  0.123 0 0  0.124 0 0  0.125 0 0  0.126 0 0  0.127 0 0  0.128 0 0  0.129 0 0  0.13 0 0  0.131 0 0  0.132 0 0  0.133 0 0  0.134 0 0  0.135 0 0  0.136 0 0  0.137 0 0  0.138 0 0  0.139 0 0  0.14 0 0  0.141 0 0  0.142 0 0  0.143 0 0  0.144 0 0  0.145 0 0  0.146 0 0  0.147 0 0  0.148 0 0  0.149 0 0  0.15 0 0  0.151 0 0  0.152 0 0  0.153 0 0  0.154 0 0  0.155 0 0  0.156 0 0  0.157 0 0  0.158 0 0  0.159 0 0  0.16 0 0  0.161 0 0  0.162 0 0  0.163 0 0  0.164 0 0  0.165 0 0  0.166 0 0  0.167 0 0  0.168 0 0  0.169 0 0  0.17 0 0  0.171 0 0  0.172 0 0  0.173 0 0  0.174 0 0  0.175 0 0  0.176 0 0  0.177 0 0  0.178 0 0  0.179 0 0  0.18 0 0  0.181 0 0  0.182 0 0  0.183 0 0  0.184 0 0  0.185 0 0  0.186 0 0  0.187 0 0  0.188 0 0  0.189 0 0  0.19 0 0  0.191 0 0  0.192 0 0  0.193 0 0  0.194 0 0  0.195 0 0  0.196 0 0  0.197 0 0  0.198 0 0  0.199 0 0  0.2 0 0  0.201 0 0  0.202 0 0  0.203 0 0  0.204 0 0  0.205 0 0  0.206 0 0  0.207 0 0  0.208 0 0  0.209 0 0  0.21 0 0  0.211 0 0  0.212 0 0  0.213 0 0  0.214 0 0  0.215 0 0  0.216 0 0  0.217 0 0  0.218 0 0  0.219 0 0  0.22 0 0  0.221 0 0  0.222 0 0  0.223 0 0  0.224 0 0  0.225 0 0  0.226 0 0  0.227 0 0  0.228 0 0  0.229 0 0  0.23 0 0  0.231 0 0  0.232 0 0  0.233 0 0  0.234 0 0  0.235 0 0  0.236 0 0  0.237 0 0  0.238 0 0  0.239 0 0  0.24 0 0  0.241 0 0  0.242 0 0  0.243 0 0  0.244 0 0  0.245 0 0  0.246 0 0  0.247 0 0  0.248 0 0  0.249 0 0  0.25 0 0  0.251 0 0  0.252 0 0  0.253 0 0  0.254 0 0  0.255 0 0  0.256 0 0  0.257 0 0  0.258 0 0  0.259 0 0  0.26 0 0  0.261 0 0  0.262 0 0  0.263 0 0  0.264 0 0  0.265 0 0  0.266 0 0  0.267 0 0  0.268 0 0  0.269 0 0  0.27 0 0  0.271 0 0  0.272 0 0  0.273 0 0  0.274 0 0  0.275 0 0  0.276 0 0  0.277 0 0  0.278 0 0  0.279 0 0  0.28 0 0  0.281 0 0  0.282 0 0  0.283 0 0  0.284 0 0  0.285 0 0  0.286 0 0  0.287 0 0  0.288 0 0  0.289 0 0  0.29 0 0  0.291 0 0  0.292 0 0  0.293 0 0  0.294 0 0  0.295 0 0  0.296 0 0  0.297 0 0  0.298 0 0  0.299 0 0  0.3 0 0  0.301 0 0  0.302 0 0  0.303 0 0  0.304 0 0  0.305 0 0  0.306 0 0  0.307 0 0  0.308 0 0  0.309 0 0  0.31 0 0  0.311 0 0  0.312 0 0  0.313 0 0  0.314 0 0  0.315 0 0  0.316 0 0  0.317 0 0  0.318 0 0  0.319 0 0  0.32 0 0  0.321 0 0  0.322 0 0  0.323 0 0  0.324 0 0  0.325 0 0  0.326 0 0  0.327 0 0  0.328 0 0  0.329 0 0  0.33 0 0  0.331 0 0  0.332 0 0  0.333 0 0  0.334 0 0  0.335 0 0  0.336 0 0  0.337 0 0  0.338 0 0  0.339 0 0  0.34 0 0  0.341 0 0  0.342 0 0  0.343 0 0  0.344 0 0  0.345 0 0  0.346 0 0  0.347 0 0  0.348 0 0  0.349 0 0  0.35 0 0  0.351 0 0  0.352 0 0  0.353 0 0  0.354 0 0  0.355 0 0  0.356 0 0  0.357 0 0  0.358 0 0  0.359 0 0  0.36 0 0  0.361 0 0  0.362 0 0  0.363 0 0  0.364 0 0  0.365 0 0  0.366 0 0  0.367 0 0  0.368 0 0  0.369 0 0  0.37 0 0  0.371 0 0  0.372 0 0  0.373 0 0  0.374 0 0  0.375 0 0  0.376 0 0  0.377 0 0  0.378 0 0  0.379 0 0  0.38 0 0  0.381 0 0  0.382 0 0  0.383 0 0  0.384 0 0  0.385 0 0  0.386 0 0  0.387 0 0  0.388 0 0  0.389 0 0  0.39 0 0  0.391 0 0  0.392 0 0  0.393 0 0  0.394 0 0  0.395 0 0  0.396 0 0  0.397 0 0  0.398 0 0  0.399 0 0  0.4 0 0  0.401 0 0  0.402 0 0  0.403 0 0  0.404 0 0  0.405 0 0  0.406 0 0  0.407 0 0  0.408 0 0  0.409 0 0  0.41 0 0  0.411 0 0  0.412 0 0  0.413 0 0  0.414 0 0  0.415 0 0  0.416 0 0  0.417 0 0  0.418 0 0  0.419 0 0  0.42 0 0  0.421 0 0  0.422 0 0  0.423 0 0  0.424 0 0  0.425 0 0  0.426 0 0  0.427 0 0  0.428 0 0  0.429 0 0  0.43 0 0  0.431 0 0  0.432 0 0  0.433 0 0  0.434 0 0  0.435 0 0  0.436 0 0  0.437 0 0  0.438 0 0  0.439 0 0  0.44 0 0  0.441 0 0  0.442 0 0  0.443 0 0  0.444 0 0  0.445 0 0  0.446 0 0  0.447 0 0  0.448 0 0  0.449 0 0  0.45 0 0  0.451 0 0  0.452 0 0  0.453 0 0  0.454 0 0  0.455 0 0  0.456 0 0  0.457 0 0  0.458 0 0  0.459 0 0  0.46 0 0  0.461 0 0  0.462 0 0  0.463 0 0  0.464 0 0  0.465 0 0  0.466 0 0  0.467 0 0  0.468 0 0  0.469 0 0  0.47 0 0  0.471 0 0  0.472 0 0  0.473 0 0  0.474 0 0  0.475 0 0  0.476 0 0  0.477 0 0  0.478 0 0  0.479 0 0  0.48 0 0  0.481 0 0  0.482 0 0  0.483 0 0  0.484 0 0  0.485 0 0  0.486 0 0  0.487 0 0  0.488 0 0  0.489 0 0  0.49 0 0  0.491 0 0  0.492 0 0  0.493 0 0  0.494 0 0  0.495 0 0  0.496 0 0  0.497 0 0  0.498 0 0  0.499 0 0  0.5 0 0  0.501 0 0  0.502 0 0  0.503 0 0  0.504 0 0  0.505 0 0  0.506 0 0  0.507 0 0  0.508 0 0  0.509 0 0  0.51 0 0  0.511 0 0  0.512 0 0  0.513 0 0  0.514 0 0  0.515 0 0  0.516 0 0  0.517 0 0  0.518 0 0  0.519 0 0  0.52 0 0  0.521 0 0  0.522 0 0  0.523 0 0  0.524 0 0  0.525 0 0  0.526 0 0  0.527 0 0  0.528 0 0  0.529 0 0  0.53 0 0  0.531 0 0  0.532 0 0  0.533 0 0  0.534 0 0  0.535 0 0  0.536 0 0  0.537 0 0  0.538 0 0  0.539 0 0  0.54 0 0  0.541 0 0  0.542 0 0  0.543 0 0  0.544 0 0  0.545 0 0  0.546 0 0  0.547 0 0  0.548 0 0  0.549 0 0  0.55 0 0  0.551 0 0  0.552 0 0  0.553 0 0  0.554 0 0  0.555 0 0  0.556 0 0  0.5570000000000001 0 0  0.5580000000000001 0 0  0.5590000000000001 0 0  0.5600000000000001 0 0  0.5610000000000001 0 0  0.5620000000000001 0 0  0.5629999999999999 0 0  0.5639999999999999 0 0  0.5649999999999999 0 0  0.5659999999999999 0 0  0.5669999999999999 0 0  0.5679999999999999 0 0  0.569 0 0  0.57 0 0  0.571 0 0  0.572 0 0  0.573 0 0  0.574 0 0  0.575 0 0  0.576 0 0  0.577 0 0  0.578 0 0  0.579 0 0  0.58 0 0  0.581 0 0  0.582 0 0  0.583 0 0  0.584 0 0  0.585 0 0  0.586 0 0  0.587 0 0  0.588 0 0  0.589 0 0  0.59 0 0  0.591 0 0  0.592 0 0  0.593 0 0  0.594 0 0  0.595 0 0  0.596 0 0  0.597 0 0  0.598 0 0  0.599 0 0  0.6 0 0  0.601 0 0  0.602 0 0  0.603 0 0  0.604 0 0  0.605 0 0  0.606 0 0  0.607 0 0  0.608 0 0  0.609 0 0  0.61 0 0  0.611 0 0  0.612 0 0  0.613 0 0  0.614 0 0  0.615 0 0  0.616 0 0  0.617 0 0  0.618 0 0  0.619 0 0  0.62 0 0  0.621 0 0  0.622 0 0  0.623 0 0  0.624 0 0  0.625 0 0  0.626 0 0  0.627 0 0  0.628 0 0  0.629 0 0  0.63 0 0  0.631 0 0  0.632 0 0  0.633 0 0  0.634 0 0  0.635 0 0  0.636 0 0  0.637 0 0  0.638 0 0  0.639 0 0  0.64 0 0  0.641 0 0  0.642 0 0  0.643 0 0  0.644 0 0  0.645 0 0  0.646 0 0  0.647 0 0  0.648 0 0  0.649 0 0  0.65 0 0  0.651 0 0  0.652 0 0  0.653 0 0  0.654 0 0  0.655 0 0  0.656 0 0  0.657 0 0  0.658 0 0  0.659 0 0  0.66 0 0  0.661 0 0  0.662 0 0  0.663 0 0  0.664 0 0  0.665 0 0  0.666 0 0  0.667 0 0  0.668 0 0  0.669 0 0  0.67 0 0  0.671 0 0  0.672 0 0  0.673 0 0  0.674 0 0  0.675 0 0  0.676 0 0  0.677 0 0  0.678 0 0  0.679 0 0  0.68 0 0  0.681 0 0  0.6820000000000001 0 0  0.6830000000000001 0 0  0.6840000000000001 0 0  0.6850000000000001 0 0  0.6860000000000001 0 0  0.6870000000000001 0 0  0.6879999999999999 0 0  0.6889999999999999 0 0  0.6899999999999999 0 0  0.6909999999999999 0 0  0.6919999999999999 0 0  0.6929999999999999 0 0  0.694 0 0  0.695 0 0  0.696 0 0  0.697 0 0  0.698 0 0  0.699 0 0  0.7 0 0  0.701 0 0  0.702 0 0  0.703 0 0  0.704 0 0  0.705 0 0  0.706 0 0  0.707 0 0  0.708 0 0  0.709 0 0  0.71 0 0  0.711 0 0  0.712 0 0  0.713 0 0  0.714 0 0  0.715 0 0  0.716 0 0  0.717 0 0  0.718 0 0  0.719 0 0  0.72 0 0  0.721 0 0  0.722 0 0  0.723 0 0  0.724 0 0  0.725 0 0  0.726 0 0  0.727 0 0  0.728 0 0  0.729 0 0  0.73 0 0  0.731 0 0  0.732 0 0  0.733 0 0  0.734 0 0  0.735 0 0  0.736 0 0  0.737 0 0  0.738 0 0  0.739 0 0  0.74 0 0  0.741 0 0  0.742 0 0  0.743 0 0  0.744 0 0  0.745 0 0  0.746 0 0  0.747 0 0  0.748 0 0  0.749 0 0  0.75 0 0  0.751 0 0  0.752 0 0  0.753 0 0  0.754 0 0  0.755 0 0  0.756 0 0  0.757 0 0  0.758 0 0  0.759 0 0  0.76 0 0  0.761 0 0  0.762 0 0  0.763 0 0  0.764 0 0  0.765 0 0  0.766 0 0  0.767 0 0  0.768 0 0  0.769 0 0  0.77 0 0  0.771 0 0  0.772 0 0  0.773 0 0  0.774 0 0  0.775 0 0  0.776 0 0  0.777 0 0  0.778 0 0  0.779 0 0  0.78 0 0  0.781 0 0  0.782 0 0  0.783 0 0  0.784 0 0  0.785 0 0  0.786 0 0  0.787 0 0  0.788 0 0  0.789 0 0  0.79 0 0  0.791 0 0  0.792 0 0  0.793 0 0  0.794 0 0  0.795 0 0  0.796 0 0  0.797 0 0  0.798 0 0  0.799 0 0  0.8 0 0  0.801 0 0  0.802 0 0  0.803 0 0  0.804 0 0  0.805 0 0  0.806 0 0  0.8070000000000001 0 0  0.8080000000000001 0 0  0.8090000000000001 0 0  0.8100000000000001 0 0  0.8110000000000001 0 0  0.8120000000000001 0 0  0.8129999999999999 0 0  0.8139999999999999 0 0  0.8149999999999999 0 0  0.8159999999999999 0 0  0.8169999999999999 0 0  0.8179999999999999 0 0  0.819 0 0  0.82 0 0  0.821 0 0  0.822 0 0  0.823 0 0  0.824 0 0  0.825 0 0  0.826 0 0  0.827 0 0  0.828 0 0  0.829 0 0  0.83 0 0  0.831 0 0  0.832 0 0  0.833 0 0  0.834 0 0  0.835 0 0  0.836 0 0  0.837 0 0  0.838 0 0  0.839 0 0  0.84 0 0  0.841 0 0  0
[...]
<PointData  Scalars="f_20-0"> 
<DataArray  type="Float64"  Name="f_20-0"  format="ascii">2.0000000000916791e+00  2.0000000000927791e+00  2.0000000000961031e+00  2.0000000001017262e+00  2.0000000001097762e+00  2.0000000001204361e+00  2.0000000001339462e+00  2.0000000001506106e+00  2.0000000001708047e+00  2.0000000001949805e+00  2.0000000002236784e+00  2.0000000002575398e+00  2.0000000002973155e+00  2.0000000003438858e+00  2.0000000003982783e+00  2.0000000004616871e+00  2.0000000005354988e+00  2.0000000006213208e+00  2.0000000007210139e+00  2.0000000008367329e+00  2.0000000009709646e+00  2.0000000011265833e+00  2.0000000013069057e+00  2.0000000015157564e+00  2.0000000017575466e+00  2.0000000020373609e+00  2.0000000023610554e+00  2.0000000027353737e+00  2.0000000031680791e+00  2.0000000036681040e+00  2.0000000042457211e+00  2.0000000049127431e+00  2.0000000056827485e+00  2.0000000065713377e+00  2.0000000075964288e+00  2.0000000087785952e+00  2.0000000101414499e+00  2.0000000117120869e+00  2.0000000135215816e+00  2.0000000156055635e+00  2.0000000180048709e+00  2.0000000207662936e+00  2.0000000239434259e+00  2.0000000275976300e+00  2.0000000317991371e+00  2.0000000366283053e+00  2.0000000421770472e+00  2.0000000485504499e+00  2.0000000558686244e+00  2.0000000642688045e+00  2.0000000739077342e+00  2.0000000849643751e+00  2.0000000976429861e+00  2.0000001121766169e+00  2.0000001288310694e+00  2.0000001479093954e+00  2.0000001697569934e+00  2.0000001947673858e+00  2.0000002233887644e+00  2.0000002561314041e+00  2.0000002935760515e+00  2.0000003363834238e+00  2.0000003853049519e+00  2.0000004411949264e+00  2.0000005050242282e+00  2.0000005778958436e+00  2.0000006610623844e+00  2.0000007559458748e+00  2.0000008641600759e+00  2.0000009875356737e+00  2.0000011281486834e+00  2.0000012883524660e+00  2.0000014708138103e+00  2.0000016785535624e+00  2.0000019149923838e+00  2.0000021840022391e+00  2.0000024899643249e+00  2.0000028378342121e+00  2.0000032332150703e+00  2.0000036824399481e+00  2.0000041926641821e+00  2.0000047719691492e+00  2.0000054294787031e+00  2.0000061754897893e+00  2.0000070216189045e+00  2.0000079809662594e+00  2.0000090682996983e+00  2.0000103002606777e+00  2.0000116955948402e+00  2.0000132754100206e+00  2.0000150634648186e+00  2.0000170864912223e+00  2.0000193745551420e+00  2.0000219614591384e+00  2.0000248851920794e+00  2.0000281884309810e+00  2.0000319191008300e+00  2.0000361309988164e+00  2.0000408844900646e+00  2.0000462472827087e+00  2.0000522952909607e+00  2.0000591135957158e+00  2.0000667975132225e+00  2.0000754537834200e+00  2.0000852018907063e+00  2.0000961755311999e+00  2.0001085242419481e+00  2.0001224152090775e+00  2.0001380352735452e+00  2.0001555931549615e+00  2.0001753219159570e+00  2.0001974816916905e+00  2.0002223627114679e+00  2.0002502886419387e+00  2.0002816202841207e+00  2.0003167596594609e+00  2.0003561545233541e+00  2.0004003033480044e+00  2.0004497608202696e+00  2.0005051439041188e+00  2.0005671385216481e+00  2.0006365069112388e+00  2.0007140957263410e+00  2.0008008449436359e+00  2.0008977976549480e+00  2.0010061108231452e+00  2.0011270670885777e+00  2.0012620877191543e+00  2.0014127468040788e+00  2.0015807867984341e+00  2.0017681355332773e+00  2.0019769248135639e+00  2.0022095107340676e+00  2.0024684958513732e+00  2.0027567533579456e+00  2.0030774534120726e+00  2.0034340917849907e+00  2.0038305209936031e+00  2.0042709840935866e+00  2.0047601513131714e+00  2.0053031597121169e+00  2.0059056560530144e+00  2.0065738430726068e+00  2.0073145293387853e+00  2.0081351828737075e+00  2.0090439887143585e+00  2.0100499105680787e+00  2.0111627567010881e+00  2.0123932501718929e+00  2.0137531034873803e+00  2.0152550977161030e+00  2.0169131660392012e+00  2.0187424816530082e+00  2.0207595498568485e+00  2.0229823040629804e+00  2.0254302053511286e+00  2.0281243450555353e+00  2.0310875497160441e+00  2.0343444875444687e+00  2.0379217753519017e+00  2.0418480846503591e+00  2.0461542453827288e+00  2.0508733454484984e+00  2.0560408238805703e+00  2.0616945551933132e+00  2.0678749220683694e+00  2.0746248731793879e+00  2.0819899625890024e+00  2.0900183667933137e+00  2.0987608751565014e+00  2.1082708491900664e+00  2.1186041459104752e+00  2.1298190003820023e+00  2.1419758625477794e+00  2.1551371836031668e+00  2.1693671475042531e+00  2.1847313437622731e+00  2.2012963784806052e+00  2.2191294216670561e+00  2.2382976902132303e+00  2.2588678675747449e+00  2.2809054630939913e+00  2.3044741160446720e+00  2.3296348517859808e+00  2.3564452998129615e+00  2.3849588858753350e+00  2.4152240125887188e+00  2.4472832449454733e+00  2.4811725187087759e+00  2.5169203907096183e+00  2.5545473504457590e+00  2.5940652120161154e+00  2.6354766042644133e+00  2.6787745750497014e+00  2.7239423228578388e+00  2.7709530656175803e+00  2.8197700527345519e+00  2.8703467221899652e+00  2.9226270002758814e+00  2.9765457373702549e+00  3.0320292692992830e+00  3.0889960904737417e+00  3.1473576222651363e+00  3.2070190581056854e+00  3.2678802656024795e+00  3.3298367255498782e+00  3.3927804880594721e+00  3.4566011270207384e+00  3.5211866756473480e+00  3.5864245278272233e+00  3.6522022922460389e+00  3.7184085886645111e+00  3.7849337781812258e+00  3.8516706217026404e+00  3.9185148630878186e+00  3.9853657354755048e+00  4.0521263910938430e+00  4.1187042563754002e+00  4.1850113154453572e+00  4.2509643260248851e+00  4.3164849725111054e+00  4.3814999614826888e+00  4.4459410651635940e+00  4.5097451184863164e+00  4.5728539753599895e+00  4.6352144295964601e+00  4.6967781057057323e+00  4.7575013244645943e+00  4.8173449478098727e+00  4.8762742072281213e+00  4.9342585194214417e+00  4.9912712926361893e+00  5.0472897266570333e+00  5.1022946090997436e+00  5.1562701102875153e+00  5.2092035786707598e+00  5.2610853384509708e+00  5.3119084907966432e+00  5.3616687197930979e+00  5.4103641040479271e+00  5.4579949346785792e+00  5.5045635402369033e+00  5.5500741189756351e+00  5.5945325787322258e+00  5.6379463845941347e+00  5.6803244144151464e+00  5.7216768221726300e+00  5.7620149090892703e+00  5.8013510023882420e+00  5.8396983415065655e+00  5.8770709715561544e+00  5.9134836437947653e+00  5.9489517228484159e+00  5.9834911004121309e+00  6.0171181151459825e+00  6.0498494784778094e+00  6.0817022060217720e+00  6.1126935543227523e+00  6.1428409626396858e+00  6.1721619994860992e+00  6.2006743136527378e+00  6.2283955894450980e+00  6.2553435058774847e+00  6.2815356995747322e+00  6.3069897311427896e+00  6.3317230547795864e+00  6.3557529909081989e+00  6.3790967016247775e+00  6.4017711687642009e+00  6.4237931743967733e+00  6.4451792835793835e+00  6.4659458291944523e+00  6.4861088987195572e+00  6.5056843227799082e+00  6.5246876653447394e+00  6.5431342154372505e+00  6.5610389802359075e+00  6.5784166794527241e+00  6.5952817408815729e+00  6.6116482970166510e+00  6.6275301826478934e+00  6.6429409333465044e+00  6.6578937847597262e+00  6.6724016726396611e+00  6.6864772335362366e+00  6.7001328060894725e+00  6.7133804328608848e+00  6.7262318626482935e+00  6.7386985532324708e+00  6.7507916745079442e+00  6.7625221119538974e+00  6.7739004704045653e+00  6.7849370780816569e+00  6.7956419908543335e+00  6.8060249966950650e+00  6.8160956203022414e+00  6.8258631278628643e+00  6.8353365319308494e+00  6.8445245963986094e+00  6.8534358415414864e+00  6.8620785491164167e+00  6.8704607674979323e+00  6.8785903168360774e+00  6.8864747942223374e+00  6.8941215788509647e+00  6.9015378371643363e+00  6.9087305279721249e+00  6.9157064075351284e+00  6.9224720346055557e+00  6.9290337754164932e+00  6.9353978086140788e+00  6.9415701301267205e+00  6.9475565579663270e+00  6.9533627369572608e+00  6.9589941433892175e+00  6.9644560895908620e+00  6.9697537284214981e+00  6.9748920576785309e+00  6.9798759244189013e+00  6.9847100291930184e+00  6.9893989301901236e+00  6.9939470472942613e+00  6.9983586660503834e+00  7.0026379415403310e+00  7.0067889021687026e+00  7.0108154533587843e+00  7.0147213811589726e+00  7.0185103557602329e+00  7.0221859349253082e+00  7.0257515673305564e+00  7.0292105958213531e+00  7.0325662605821693e+00  7.0358217022224911e+00  7.0389799647798128e+00  7.0420439986410663e+00  7.0450166633838327e+00  7.0479007305387853e+00  7.0506988862748576e+00  7.0534137340086192e+00  7.0560477969394100e+00  7.0586035205118005e+00  7.0610832748069532e+00  7.0634893568644523e+00  7.0658239929362150e+00  7.0680893406740664e+00  7.0702874912525724e+00  7.0724204714287033e+00  7.0744902455399128e+00  7.0764987174421945e+00  7.0784477323896455e+00  7.0803390788570937e+00  7.0821744903072688e+00  7.0839556469040339e+00  7.0856841771731354e+00  7.0873616596118962e+00  7.0889896242493124e+00  7.0905695541579119e+00  7.0921028869187595e+00  7.0935910160409392e+00  7.0950352923368545e+00  7.0964370252545832e+00  7.0977974841685985e+00  7.0991178996300528e+00  7.1003994645778192e+00  7.1016433355115103e+00  7.1028506336275505e+00  7.1040224459194787e+00  7.1051598262435309e+00  7.1062637963505892e+00  7.1073353468854990e+00  7.1083754383547975e+00  7.1093850020637968e+00  7.1103649410240024e+00  7.1113161308317716e+00  7.1122394205191179e+00  7.1131356333775537e+00  7.1140055677557816e+00  7.1148499978321125e+00  7.1156696743623646e+00  7.1164653254040431e+00  7.1172376570175757e+00  7.1179873539452814e+00  7.1187150802688546e+00  7.1194214800459958e+00  7.1201071779268963e+00  7.1207727797512019e+00  7.1214188731260943e+00  7.1220460279861122e+00  7.1226547971352803e+00  7.1232457167721330e+00  7.1238193069981905e+00  7.1243760723104108e+00  7.1249165020781584e+00  7.1254410710051648e+00  7.1259502395770111e+00  7.1264444544945551e+00  7.1269241490938091e+00  7.1273897437526790e+00  7.1278416462849927e+00  7.1282802523222584e+00  7.1287059456835333e+00  7.1291190987337849e+00  7.1295200727311476e+00  7.1299092181634052e+00  7.1302868750740762e+00  7.1306533733784194e+00  7.1310090331697191e+00  7.1313541650161261e+00  7.1316890702483970e+00  7.1320140412388229e+00  7.1323293616716139e+00  7.1326353068050441e+00  7.1329321437256166e+00  7.1332201315945092e+00  7.1334995218865531e+00  7.1337705586220039e+00  7.1340334785913200e+00  7.1342885115732004e+00  7.1345358805460997e+00  7.1347758018934382e+00  7.1350084856027101e+00  7.1352341354587070e+00  7.1354529492310590e+00  7.1356651188562559e+00  7.1358708306143699e+00  7.1360702653006447e+00  7.1362635983921088e+00  7.1364510002093970e+00  7.1366326360739309e+00  7.1368086664605981e+00  7.1369792471460913e+00  7.1371445293530220e+00  7.1373046598899359e+00  7.1374597812873519e+00  7.1376100319299143e+00  7.1377555461847813e+00  7.1378964545262908e+00  7.1380328836570222e+00  7.1381649566252801e+00  7.1382927929390885e+00  7.1384165086767029e+00  7.1385362165937156e+00  7.1386520262267394e+00  7.1387640439937163e+00  7.1388723732908534e+00  7.1389771145861785e+00  7.1390783655097438e+00  7.1391762209404472e+00  7.1392707730894740e+00  7.1393621115803620e+00  7.1394503235256748e+00  7.1395354936002846e+00  7.1396177041112656e+00  7.1396970350643958e+00  7.1397735642273084e+00  7.1398473671892715e+00  7.1399185174176569e+00  7.1399870863111339e+00  7.1400531432496184e+00  7.1401167556410536e+00  7.1401779889650951e+00  7.1402369068137537e+00  7.1402935709291322e+00  7.1403480412382994e+00  7.1404003758854619e+00  7.1404506312615199e+00  7.1404988620311354e+00  7.1405451211574542e+00  7.1405894599245929e+00  7.1406319279580561e+00  7.1406725732431928e+00  7.1407114421418463e+00  7.1407485794073420e+00  7.1407840281979231e+00  7.1408178300887943e+00  7.1408500250828686e+00  7.1408806516203782e+00  7.1409097465874281e+00  7.1409373453236160e+00  7.1409634816288259e+00  7.1409881877692722e+00  7.1410114944828891e+00  7.1410334309841481e+00  7.1410540249683567e+00  7.1410733026155055e+00  7.1410912885937332e+00  7.1411080060624297e+00  7.1411234766750367e+00  7.1411377205815656e+00  7.1411507564308865e+00  7.1411626013727716e+00  7.1411732710597509e+00  7.1411827796487657e+00  7.1411911398026566e+00  7.1411983626914690e+00  7.1412044579936103e+00  7.1412094338968304e+00  7.1412132970990649e+00  7.1412160528091162e+00  7.1412177047471745e+00  7.1412182551452057e+00  7.1412177047471745e+00  7.1412160528091162e+00  7.1412132970990649e+00  7.1412094338968304e+00  7.1412044579936103e+00  7.1411983626914690e+00  7.1411911398026566e+00  7.1411827796487657e+00  7.1411732710597509e+00  7.1411626013727716e+00  7.1411507564308865e+00  7.1411377205815656e+00  7.1411234766750367e+00  7.1411080060624297e+00  7.1410912885937332e+00  7.1410733026155055e+00  7.1410540249683567e+00  7.1410334309841481e+00  7.1410114944828891e+00  7.1409881877692722e+00  7.1409634816288259e+00  7.1409373453236151e+00  7.1409097465874272e+00  7.1408806516203782e+00  7.1408500250828677e+00  7.1408178300887943e+00  7.1407840281979240e+00  7.1407485794073402e+00  7.1407114421418445e+00  7.1406725732431910e+00  7.1406319279580543e+00  7.1405894599245920e+00  7.1405451211574542e+00  7.1404988620311354e+00  7.1404506312615181e+00  7.1404003758854602e+00  7.1403480412382976e+00  7.1402935709291304e+00  7.1402369068137528e+00  7.1401779889650934e+00  7.1401167556410527e+00  7.1400531432496157e+00  7.1399870863111339e+00  7.1399185174176569e+00  7.1398473671892697e+00  7.1397735642273084e+00  7.1396970350643967e+00  7.1396177041112656e+00  7.1395354936002846e+00  7.1394503235256748e+00  7.1393621115803620e+00  7.1392707730894731e+00  7.1391762209404472e+00  7.1390783655097438e+00  7.1389771145861785e+00  7.1388723732908534e+00  7.1387640439937163e+00  7.1386520262267386e+00  7.1385362165937138e+00  7.1384165086767011e+00  7.1382927929390867e+00  7.1381649566252792e+00  7.1380328836570213e+00  7.1378964545262900e+00  7.1377555461847813e+00  7.1376100319299134e+00  7.1374597812873501e+00  7.1373046598899350e+00  7.1371445293530229e+00  7.1369792471460913e+00  7.1368086664605981e+00  7.1366326360739309e+00  7.1364510002093970e+00  7.1362635983921088e+00  7.1360702653006447e+00  7.1358708306143690e+00  7.1356651188562559e+00  7.1354529492310599e+00  7.1352341354587097e+00  7.1350084856027109e+00  7.1347758018934400e+00  7.1345358805460988e+00  7.1342885115731978e+00  7.1340334785913191e+00  7.1337705586220030e+00  7.1334995218865540e+00  7.1332201315945101e+00  7.1329321437256175e+00  7.1326353068050450e+00  7.1323293616716148e+00  7.1320140412388238e+00  7.1316890702483979e+00  7.1313541650161270e+00  7.1310090331697200e+00  7.1306533733784212e+00  7.1302868750740753e+00  7.1299092181634052e+00  7.1295200727311476e+00  7.1291190987337849e+00  7.1287059456835333e+00  7.1282802523222584e+00  7.1278416462849927e+00  7.1273897437526790e+00  7.1269241490938091e+00  7.1264444544945524e+00  7.1259502395770067e+00  7.1254410710051621e+00  7.1249165020781549e+00  7.1243760723104090e+00  7.1238193069981870e+00  7.1232457167721295e+00  7.1226547971352767e+00  7.1220460279861104e+00  7.1214188731260935e+00  7.1207727797512019e+00  7.1201071779268963e+00  7.1194214800459950e+00  7.1187150802688519e+00  7.1179873539452796e+00  7.1172376570175748e+00  7.1164653254040440e+00  7.1156696743623655e+00  7.1148499978321125e+00  7.1140055677557816e+00  7.1131356333775546e+00  7.1122394205191179e+00  7.1113161308317716e+00  7.1103649410240024e+00  7.1093850020637976e+00  7.1083754383547992e+00  7.1073353468855007e+00  7.1062637963505910e+00  7.1051598262435336e+00  7.1040224459194796e+00  7.1028506336275523e+00  7.1016433355115121e+00  7.1003994645778210e+00  7.0991178996300528e+00  7.0977974841685993e+00  7.0964370252545841e+00  7.0950352923368545e+00  7.0935910160409401e+00  7.0921028869187595e+00  7.0905695541579137e+00  7.0889896242493142e+00  7.0873616596118971e+00  7.0856841771731354e+00  7.0839556469040339e+00  7.0821744903072688e+00  7.0803390788570937e+00  7.0784477323896455e+00  7.0764987174421945e+00  7.0744902455399137e+00  7.0724204714287024e+00  7.0702874912525724e+00  7.0680893406740664e+00  7.0658239929362150e+00  7.0634893568644523e+00  7.0610832748069532e+00  7.0586035205118005e+00  7.0560477969394082e+00  7.0534137340086200e+00  7.0506988862748594e+00  7.0479007305387862e+00  7.0450166633838327e+00  7.0420439986410663e+00  7.0389799647798128e+00  7.0358217022224911e+00  7.0325662605821693e+00  7.0292105958213531e+00  7.0257515673305555e+00  7.0221859349253064e+00  7.0185103557602302e+00  7.0147213811589708e+00  7.0108154533587843e+00  7.0067889021687035e+00  7.0026379415403310e+00  6.9983586660503834e+00  6.9939470472942613e+00  6.9893989301901236e+00  6.9847100291930184e+00  6.9798759244189013e+00  6.9748920576785318e+00  6.9697537284214990e+00  6.9644560895908620e+00  6.9589941433892157e+00  6.9533627369572599e+00  6.9475565579663270e+00  6.9415701301267214e+00  6.9353978086140797e+00  6.9290337754164932e+00  6.9224720346055557e+00  6.9157064075351284e+00  6.9087305279721241e+00  6.9015378371643363e+00  6.8941215788509655e+00  6.8864747942223374e+00  6.8785903168360774e+00  6.8704607674979332e+00  6.8620785491164185e+00  6.8534358415414873e+00  6.8445245963986112e+00  6.8353365319308494e+00  6.8258631278628643e+00  6.8160956203022414e+00  6.8060249966950650e+00  6.7956419908543335e+00  6.7849370780816569e+00  6.7739004704045662e+00  6.7625221119538974e+00  6.7507916745079442e+00  6.7386985532324717e+00  6.7262318626482953e+00  6.7133804328608866e+00  6.7001328060894751e+00  6.6864772335362384e+00  6.6724016726396638e+00  6.6578937847597288e+00  6.6429409333465079e+00  6.6275301826478970e+00  6.6116482970166537e+00  6.5952817408815747e+00  6.5784166794527241e+00  6.5610389802359093e+00  6.5431342154372540e+00  6.5246876653447421e+00  6.5056843227799126e+00  6.4861088987195599e+00  6.4659458291944549e+00  6.4451792835793862e+00  6.4237931743967742e+00  6.4017711687642018e+00  6.3790967016247784e+00  6.3557529909081998e+00  6.3317230547795882e+00  6.3069897311427914e+00  6.2815356995747340e+00  6.2553435058774856e+00  6.2283955894451015e+00  6.2006743136527405e+00  6.1721619994861010e+00  6.1428409626396885e+00  6.1126935543227550e+00  6.0817022060217747e+00  6.0498494784778121e+00  6.0171181151459860e+00  5.9834911004121345e+00  5.9489517228484203e+00  5.9134836437947671e+00  5.8770709715561571e+00  5.8396983415065664e+00  5.8013510023882446e+00  5.7620149090892721e+00  5.7216768221726308e+00  5.6803244144151481e+00  5.6379463845941364e+00  5.5945325787322284e+00  5.5500741189756368e+00  5.5045635402369051e+00  5.4579949346785810e+00  5.4103641040479307e+00  5.3616687197931023e+00  5.3119084907966458e+00  5.2610853384509735e+00  5.2092035786707616e+00  5.1562701102875170e+00  5.1022946090997445e+00  5.0472897266570333e+00  4.9912712926361893e+00  4.9342585194214417e+00  4.8762742072281213e+00  4.8173449478098709e+00  4.7575013244645934e+00  4.6967781057057332e+00  4.6352144295964619e+00  4.5728539753599913e+00  4.5097451184863191e+00  4.4459410651635949e+00  4.3814999614826897e+00  4.3164849725111063e+00  4.2509643260248859e+00  4.1850113154453590e+00  4.1187042563754011e+00  4.0521263910938430e+00  3.9853657354755057e+00  3.9185148630878204e+00  3.8516706217026431e+00  3.7849337781812280e+00  3.7184085886645133e+00  3.6522022922460415e+00  3.5864245278272260e+00  3.5211866756473507e+00  3.4566011270207424e+00  3.3927804880594756e+00  3.3298367255498813e+00  3.2678802656024821e+00  3.2070190581056863e+00  3.1473576222651367e+00  3.0889960904737417e+00  3.0320292692992834e+00  2.9765457373702553e+00  2.9226270002758818e+00  2.8703467221899661e+00  2.8197700527345537e+00  2.7709530656175816e+00  2.7239423228578401e+00  2.6787745750497023e+00  2.6354766042644133e+00  2.5940652120161154e+00  2.5545473504457594e+00  2.5169203907096191e+00  2.4811725187087763e+00  2.4472832449454778e+00  2.4152240125887223e+00  2.3849588858753386e+00  2.3564452998129650e+00  2.3296348517859844e+00  2.3044741160446747e+00  2.2809054630939944e+00  2.2588678675747471e+00  2.2382976902132317e+00  2.2191294216670574e+00  2.2012963784806066e+00  2.1847313437622740e+00  2.1693671475042544e+00  2.1551371836031690e+00  2.1419758625477812e+00  2.1298190003820037e+00  2.1186041459104