<?xml version="1.0"?>
<VTKFile type="UnstructuredGrid"  version="0.1"  >
<UnstructuredGrid>
<Piece  NumberOfPoints="1001" NumberOfCells="1000">
<Points>
<DataArray  type="Float64"  NumberOfComponents="3"  format="ascii">0 0 0  0.001 0 0  0.002 0 0  0.003 0 0  0.004 0 0  0.005 0 0  0.006 0 0  0.007 0 0  0.008 0 0  0.008999999999999999 0 0  0.01 0 0  0.011 0 0  0.012 0 0  0.013 0 0  0.014 0 0  0.015 0 0  0.016 0 0  0.017 0 0  0.018 0 0  0.019 0 0  0.02 0 0  0.021 0 0  0.022 0 0  0.023 0 0  0.024 0 0  0.025 0 0  0.026 0 0  0.027 0 0  0.028 0 0  0.029 0 0  0.03 0 0  0.031 0 0  0.032 0 0  0.033 0 0  0.034 0 0  0.035 0 0  0.036 0 0  0.037 0 0  0.038 0 0  0.039 0 0  0.04 0 0  0.041 0 0  0.042 0 0  0.043 0 0  0.044 0 0  0.045 0 0  0.046 0 0  0.047 0 0  0.048 0 0  0.049 0 0  0.05 0 0  0.051 0 0  0.052 0 0  0.053 0 0  0.054 0 0  0.055 0 0  0.056 0 0  0.057 0 0  0.058 0 0  0.059 0 0  0.06 0 0  0.061 0 0  0.062 0 0  0.063 0 0  0.064 0 0  0.065 0 0  0.066 0 0  0.067 0 0  0.068 0 0  0.06900000000000001 0 0  0.07000000000000001 0 0  0.07099999999999999 0 0  0.07199999999999999 0 0  0.073 0 0  0.074 0 0  0.075 0 0  0.076 0 0  0.077 0 0  0.078 0 0  0.079 0 0  0.08 0 0  0.081 0 0  0.082 0 0  0.083 0 0  0.08400000000000001 0 0  0.08500000000000001 0 0  0.08599999999999999 0 0  0.08699999999999999 0 0  0.08799999999999999 0 0  0.089 0 0  0.09 0 0  0.091 0 0  0.092 0 0  0.093 0 0  0.094 0 0  0.095 0 0  0.096 0 0  0.097 0 0  0.098 0 0  0.099 0 0  0.1 0 0  0.101 0 0  0.102 0 0  0.103 0 0  0.104 0 0  0.105 0 0  0.106 0 0  0.107 0 0  0.108 0 0  0.109 0 0  0.11 0 0  0.111 0 0  0.112 0 0  0.113 0 0  0.114 0 0  0.115 0 0  0.116 0 0  0.117 0 0  0.118 0 0  0.119 0 0  0.12 0 0  0.121 0 0  0.122 0 0  0.123 0 0  0.124 0 0  0.125 0 0  0.126 0 0  0.127 0 0  0.128 0 0  0.129 0 0  0.13 0 0  0.131 0 0  0.132 0 0  0.133 0 0  0.134 0 0  0.135 0 0  0.136 0 0  0.137 0 0  0.138 0 0  0.139 0 0  0.14 0 0  0.141 0 0  0.142 0 0  0.143 0 0  0.144 0 0  0.145 0 0  0.146 0 0  0.147 0 0  0.148 0 0  0.149 0 0  0.15 0 0  0.151 0 0  0.152 0 0  0.153 0 0  0.154 0 0  0.155 0 0  0.156 0 0  0.157 0 0  0.158 0 0  0.159 0 0  0.16 0 0  0.161 0 0  0.162 0 0  0.163 0 0  0.164 0 0  0.165 0 0  0.166 0 0  0.167 0 0  0.168 0 0  0.169 0 0  0.17 0 0  0.171 0 0  0.172 0 0  0.173 0 0  0.174 0 0  0.175 0 0  0.176 0 0  0.177 0 0  0.178 0 0  0.179 0 0  0.18 0 0  0.181 0 0  0.182 0 0  0.183 0 0  0.184 0 0  0.185 0 0  0.186 0 0  0.187 0 0  0.188 0 0  0.189 0 0  0.19 0 0  0.191 0 0  0.192 0 0  0.193 0 0  0.194 0 0  0.195 0 0  0.196 0 0  0.197 0 0  0.198 0 0  0.199 0 0  0.2 0 0  0.201 0 0  0.202 0 0  0.203 0 0  0.204 0 0  0.205 0 0  0.206 0 0  0.207 0 0  0.208 0 0  0.209 0 0  0.21 0 0  0.211 0 0  0.212 0 0  0.213 0 0  0.214 0 0  0.215 0 0  0.216 0 0  0.217 0 0  0.218 0 0  0.219 0 0  0.22 0 0  0.221 0 0  0.222 0 0  0.223 0 0  0.224 0 0  0.225 0 0  0.226 0 0  0.227 0 0  0.228 0 0  0.229 0 0  0.23 0 0  0.231 0 0  0.232 0 0  0.233 0 0  0.234 0 0  0.235 0 0  0.236 0 0  0.237 0 0  0.238 0 0  0.239 0 0  0.24 0 0  0.241 0 0  0.242 0 0  0.243 0 0  0.244 0 0  0.245 0 0  0.246 0 0  0.247 0 0  0.248 0 0  0.249 0 0  0.25 0 0  0.251 0 0  0.252 0 0  0.253 0 0  0.254 0 0  0.255 0 0  0.256 0 0  0.257 0 0  0.258 0 0  0.259 0 0  0.26 0 0  0.261 0 0  0.262 0 0  0.263 0 0  0.264 0 0  0.265 0 0  0.266 0 0  0.267 0 0  0.268 0 0  0.269 0 0  0.27 0 0  0.271 0 0  0.272 0 0  0.273 0 0  0.274 0 0  0.275 0 0  0.276 0 0  0.277 0 0  0.278 0 0  0.279 0 0  0.28 0 0  0.281 0 0  0.282 0 0  0.283 0 0  0.284 0 0  0.285 0 0  0.286 0 0  0.287 0 0  0.288 0 0  0.289 0 0  0.29 0 0  0.291 0 0  0.292 0 0  0.293 0 0  0.294 0 0  0.295 0 0  0.296 0 0  0.297 0 0  0.298 0 0  0.299 0 0  0.3 0 0  0.301 0 0  0.302 0 0  0.303 0 0  0.304 0 0  0.305 0 0  0.306 0 0  0.307 0 0  0.308 0 0  0.309 0 0  0.31 0 0  0.311 0 0  0.312 0 0  0.313 0 0  0.314 0 0  0.315 0 0  0.316 0 0  0.317 0 0  0.318 0 0  0.319 0 0  0.32 0 0  0.321 0 0  0.322 0 0  0.323 0 0  0.324 0 0  0.325 0 0  0.326 0 0  0.327 0 0  0.328 0 0  0.329 0 0  0.33 0 0  0.331 0 0  0.332 0 0  0.333 0 0  0.334 0 0  0.335 0 0  0.336 0 0  0.337 0 0  0.338 0 0  0.339 0 0  0.34 0 0  0.341 0 0  0.342 0 0  0.343 0 0  0.344 0 0  0.345 0 0  0.346 0 0  0.347 0 0  0.348 0 0  0.349 0 0  0.35 0 0  0.351 0 0  0.352 0 0  0.353 0 0  0.354 0 0  0.355 0 0  0.356 0 0  0.357 0 0  0.358 0 0  0.359 0 0  0.36 0 0  0.361 0 0  0.362 0 0  0.363 0 0  0.364 0 0  0.365 0 0  0.366 0 0  0.367 0 0  0.368 0 0  0.369 0 0  0.37 0 0  0.371 0 0  0.372 0 0  0.373 0 0  0.374 0 0  0.375 0 0  0.376 0 0  0.377 0 0  0.378 0 0  0.379 0 0  0.38 0 0  0.381 0 0  0.382 0 0  0.383 0 0  0.384 0 0  0.385 0 0  0.386 0 0  0.387 0 0  0.388 0 0  0.389 0 0  0.39 0 0  0.391 0 0  0.392 0 0  0.393 0 0  0.394 0 0  0.395 0 0  0.396 0 0  0.397 0 0  0.398 0 0  0.399 0 0  0.4 0 0  0.401 0 0  0.402 0 0  0.403 0 0  0.404 0 0  0.405 0 0  0.406 0 0  0.407 0 0  0.408 0 0  0.409 0 0  0.41 0 0  0.411 0 0  0.412 0 0  0.413 0 0  0.414 0 0  0.415 0 0  0.416 0 0  0.417 0 0  0.418 0 0  0.419 0 0  0.42 0 0  0.421 0 0  0.422 0 0  0.423 0 0  0.424 0 0  0.425 0 0  0.426 0 0  0.427 0 0  0.428 0 0  0.429 0 0  0.43 0 0  0.431 0 0  0.432 0 0  0.433 0 0  0.434 0 0  0.435 0 0  0.436 0 0  0.437 0 0  0.438 0 0  0.439 0 0  0.44 0 0  0.441 0 0  0.442 0 0  0.443 0 0  0.444 0 0  0.445 0 0  0.446 0 0  0.447 0 0  0.448 0 0  0.449 0 0  0.45 0 0  0.451 0 0  0.452 0 0  0.453 0 0  0.454 0 0  0.455 0 0  0.456 0 0  0.457 0 0  0.458 0 0  0.459 0 0  0.46 0 0  0.461 0 0  0.462 0 0  0.463 0 0  0.464 0 0  0.465 0 0  0.466 0 0  0.467 0 0  0.468 0 0  0.469 0 0  0.47 0 0  0.471 0 0  0.472 0 0  0.473 0 0  0.474 0 0  0.475 0 0  0.476 0 0  0.477 0 0  0.478 0 0  0.479 0 0  0.48 0 0  0.481 0 0  0.482 0 0  0.483 0 0  0.484 0 0  0.485 0 0  0.486 0 0  0.487 0 0  0.488 0 0  0.489 0 0  0.49 0 0  0.491 0 0  0.492 0 0  0.493 0 0  0.494 0 0  0.495 0 0  0.496 0 0  0.497 0 0  0.498 0 0  0.499 0 0  0.5 0 0  0.501 0 0  0.502 0 0  0.503 0 0  0.504 0 0  0.505 0 0  0.506 0 0  0.507 0 0  0.508 0 0  0.509 0 0  0.51 0 0  0.511 0 0  0.512 0 0  0.513 0 0  0.514 0 0  0.515 0 0  0.516 0 0  0.517 0 0  0.518 0 0  0.519 0 0  0.52 0 0  0.521 0 0  0.522 0 0  0.523 0 0  0.524 0 0  0.525 0 0  0.526 0 0  0.527 0 0  0.528 0 0  0.529 0 0  0.53 0 0  0.531 0 0  0.532 0 0  0.533 0 0  0.534 0 0  0.535 0 0  0.536 0 0  0.537 0 0  0.538 0 0  0.539 0 0  0.54 0 0  0.541 0 0  0.542 0 0  0.543 0 0  0.544 0 0  0.545 0 0  0.546 0 0  0.547 0 0  0.548 0 0  0.549 0 0  0.55 0 0  0.551 0 0  0.552 0 0  0.553 0 0  0.554 0 0  0.555 0 0  0.556 0 0  0.5570000000000001 0 0  0.5580000000000001 0 0  0.5590000000000001 0 0  0.5600000000000001 0 0  0.5610000000000001 0 0  0.5620000000000001 0 0  0.5629999999999999 0 0  0.5639999999999999 0 0  0.5649999999999999 0 0  0.5659999999999999 0 0  0.5669999999999999 0 0  0.5679999999999999 0 0  0.569 0 0  0.57 0 0  0.571 0 0  0.572 0 0  0.573 0 0  0.574 0 0  0.575 0 0  0.576 0 0  0.577 0 0  0.578 0 0  0.579 0 0  0.58 0 0  0.581 0 0  0.582 0 0  0.583 0 0  0.584 0 0  0.585 0 0  0.586 0 0  0.587 0 0  0.588 0 0  0.589 0 0  0.59 0 0  0.591 0 0  0.592 0 0  0.593 0 0  0.594 0 0  0.595 0 0  0.596 0 0  0.597 0 0  0.598 0 0  0.599 0 0  0.6 0 0  0.601 0 0  0.602 0 0  0.603 0 0  0.604 0 0  0.605 0 0  0.606 0 0  0.607 0 0  0.608 0 0  0.609 0 0  0.61 0 0  0.611 0 0  0.612 0 0  0.613 0 0  0.614 0 0  0.615 0 0  0.616 0 0  0.617 0 0  0.618 0 0  0.619 0 0  0.62 0 0  0.621 0 0  0.622 0 0  0.623 0 0  0.624 0 0  0.625 0 0  0.626 0 0  0.627 0 0  0.628 0 0  0.629 0 0  0.63 0 0  0.631 0 0  0.632 0 0  0.633 0 0  0.634 0 0  0.635 0 0  0.636 0 0  0.637 0 0  0.638 0 0  0.639 0 0  0.64 0 0  0.641 0 0  0.642 0 0  0.643 0 0  0.644 0 0  0.645 0 0  0.646 0 0  0.647 0 0  0.648 0 0  0.649 0 0  0.65 0 0  0.651 0 0  0.652 0 0  0.653 0 0  0.654 0 0  0.655 0 0  0.656 0 0  0.657 0 0  0.658 0 0  0.659 0 0  0.66 0 0  0.661 0 0  0.662 0 0  0.663 0 0  0.664 0 0  0.665 0 0  0.666 0 0  0.667 0 0  0.668 0 0  0.669 0 0  0.67 0 0  0.671 0 0  0.672 0 0  0.673 0 0  0.674 0 0  0.675 0 0  0.676 0 0  0.677 0 0  0.678 0 0  0.679 0 0  0.68 0 0  0.681 0 0  0.6820000000000001 0 0  0.6830000000000001 0 0  0.6840000000000001 0 0  0.6850000000000001 0 0  0.6860000000000001 0 0  0.6870000000000001 0 0  0.6879999999999999 0 0  0.6889999999999999 0 0  0.6899999999999999 0 0  0.6909999999999999 0 0  0.6919999999999999 0 0  0.6929999999999999 0 0  0.694 0 0  0.695 0 0  0.696 0 0  0.697 0 0  0.698 0 0  0.699 0 0  0.7 0 0  0.701 0 0  0.702 0 0  0.703 0 0  0.704 0 0  0.705 0 0  0.706 0 0  0.707 0 0  0.708 0 0  0.709 0 0  0.71 0 0  0.711 0 0  0.712 0 0  0.713 0 0  0.714 0 0  0.715 0 0  0.716 0 0  0.717 0 0  0.718 0 0  0.719 0 0  0.72 0 0  0.721 0 0  0.722 0 0  0.723 0 0  0.724 0 0  0.725 0 0  0.726 0 0  0.727 0 0  0.728 0 0  0.729 0 0  0.73 0 0  0.731 0 0  0.732 0 0  0.733 0 0  0.734 0 0  0.735 0 0  0.736 0 0  0.737 0 0  0.738 0 0  0.739 0 0  0.74 0 0  0.741 0 0  0.742 0 0  0.743 0 0  0.744 0 0  0.745 0 0  0.746 0 0  0.747 0 0  0.748 0 0  0.749 0 0  0.75 0 0  0.751 0 0  0.752 0 0  0.753 0 0  0.754 0 0  0.755 0 0  0.756 0 0  0.757 0 0  0.758 0 0  0.759 0 0  0.76 0 0  0.761 0 0  0.762 0 0  0.763 0 0  0.764 0 0  0.765 0 0  0.766 0 0  0.767 0 0  0.768 0 0  0.769 0 0  0.77 0 0  0.771 0 0  0.772 0 0  0.773 0 0  0.774 0 0  0.775 0 0  0.776 0 0  0.777 0 0  0.778 0 0  0.779 0 0  0.78 0 0  0.781 0 0  0.782 0 0  0.783 0 0  0.784 0 0  0.785 0 0  0.786 0 0  0.787 0 0  0.788 0 0  0.789 0 0  0.79 0 0  0.791 0 0  0.792 0 0  0.793 0 0  0.794 0 0  0.795 0 0  0.796 0 0  0.797 0 0  0.798 0 0  0.799 0 0  0.8 0 0  0.801 0 0  0.802 0 0  0.803 0 0  0.804 0 0  0.805 0 0  0.806 0 0  0.8070000000000001 0 0  0.8080000000000001 0 0  0.8090000000000001 0 0  0.8100000000000001 0 0  0.8110000000000001 0 0  0.8120000000000001 0 0  0.8129999999999999 0 0  0.8139999999999999 0 0  0.8149999999999999 0 0  0.8159999999999999 0 0  0.8169999999999999 0 0  0.8179999999999999 0 0  0.819 0 0  0.82 0 0  0.821 0 0  0.822 0 0  0.823 0 0  0.824 0 0  0.825 0 0  0.826 0 0  0.827 0 0  0.828 0 0  0.829 0 0  0.83 0 0  0.831 0 0  0.832 0 0  0.833 0 0  0.834 0 0  0.835 0 0  0.836 0 0  0.837 0 0  0.838 0 0  0.839 0 0  0.84 0 0  0.841 0 0  0
[...]
<PointData  Scalars="f_20-0"> 
<DataArray  type="Float64"  Name="f_20-0"  format="ascii">2.0000028288904788e+00  2.0000028514326122e+00  2.0000029193919691e+00  2.0000030337719203e+00  2.0000031962598190e+00  2.0000034092498007e+00  2.0000036758750808e+00  2.0000040000501560e+00  2.0000043865234156e+00  2.0000048409407967e+00  2.0000053699212441e+00  2.0000059811448985e+00  2.0000066834550525e+00  2.0000074869750968e+00  2.0000084032418401e+00  2.0000094453567776e+00  2.0000106281570842e+00  2.0000119684083342e+00  2.0000134850211779e+00  2.0000151992944821e+00  2.0000171351877207e+00  2.0000193196257308e+00  2.0000217828392723e+00  2.0000245587452290e+00  2.0000276853706986e+00  2.0000312053256830e+00  2.0000351663295697e+00  2.0000396217971725e+00  2.0000446314906837e+00  2.0000502622445562e+00  2.0000565887710575e+00  2.0000636945550321e+00  2.0000716728472772e+00  2.0000806277668706e+00  2.0000906755238592e+00  2.0001019457748215e+00  2.0001145831250700e+00  2.0001287487925987e+00  2.0001446224503812e+00  2.0001624042652066e+00  2.0001823171529765e+00  2.0002046092723358e+00  2.0002295567805195e+00  2.0002574668775646e+00  2.0002886811674818e+00  2.0003235793675707e+00  2.0003625833999457e+00  2.0004061619023972e+00  2.0004548351990232e+00  2.0005091807746482e+00  2.0005698393008853e+00  2.0006375212657983e+00  2.0007130142635559e+00  2.0007971910051832e+00  2.0008910181165214e+00  2.0009955657949039e+00  2.0011120184016691e+00  2.0012416860736857e+00  2.0013860174433349e+00  2.0015466135630304e+00  2.0017252431373027e+00  2.0019238591725674e+00  2.0021446171622004e+00  2.0023898949320009e+00  2.0026623142789095e+00  2.0029647645434427e+00  2.0033004282639868e+00  2.0036728090684424e+00  2.0040857619656904e+00  2.0045435262057860e+00  2.0050507608833148e+00  2.0056125834627956e+00  2.0062346114079448e+00  2.0069230070976856e+00  2.0076845262104515e+00  2.0085265697540069e+00  2.0094572399101498e+00  2.0104853998513024e+00  2.0116207376684105e+00  2.0128738345257480e+00  2.0142562371268649e+00  2.0157805345359221e+00  2.0174604393485334e+00  2.0193108731443434e+00  2.0213480560783235e+00  2.0235896003772651e+00  2.0260546074002757e+00  2.0287637677952999e+00  2.0317394641358049e+00  2.0350058752509219e+00  2.0385890812668470e+00  2.0425171681558818e+00  2.0468203303412835e+00  2.0515309696310391e+00  2.0566837884527454e+00  2.0623158750372124e+00  2.0684667778540304e+00  2.0751785662442344e+00  2.0824958738315535e+00  2.0904659209359662e+00  2.0991385118755446e+00  2.1085660027429260e+00  2.1188032350025461e+00  2.1299074300991232e+00  2.1419380402249524e+00  2.1549565504942545e+00  2.1690262280491397e+00  2.1842118141057472e+00  2.2005791556701091e+00  2.2181947746356472e+00  2.2371253732339422e+00  2.2574372763514274e+00  2.2791958130360670e+00  2.3024646415698271e+00  2.3273050247240352e+00  2.3537750641723196e+00  2.3819289054142367e+00  2.4118159268473152e+00  2.4434799286863647e+00  2.4769583391298280e+00  2.5122814563788225e+00  2.5494717457035176e+00  2.5885432106263506e+00  2.6295008563902282e+00  2.6723402621846004e+00  2.7170472761454194e+00  2.7635978440098548e+00  2.8119579786252848e+00  2.8620838734559912e+00  2.9139221589999584e+00  2.9674102968348044e+00  3.0224771020650882e+00  3.0790433814330789e+00  3.1370226714380975e+00  3.1963220585997236e+00  3.2568430625623490e+00  3.3184825620876284e+00  3.3811337440860090e+00  3.4446870566269787e+00  3.5090311482384799e+00  3.5740537776369683e+00  3.6396426801903683e+00  3.7056863797757393e+00  3.7720749371303972e+00  3.8387006282021501e+00  3.9054585482925788e+00  3.9722471398888257e+00  4.0389686439462222e+00  4.1055294759877530e+00  4.1718405297149719e+00  4.2378174118807497e+00  4.3033806129702770e+00  4.3684556187940693e+00  4.4329729684415948e+00  4.4968682642052507e+00  4.5600821390918833e+00  4.6225601874213886e+00  4.6842528637969165e+00  4.7451153554430165e+00  4.8051074325688345e+00  4.8641932810416399e+00  4.9223413212673046e+00  4.9795240167812551e+00  5.0357176756662287e+00  5.0909022475391952e+00  5.1450611184948656e+00  5.1981809060608617e+00  5.2502512559125281e+00  5.3012646418145133e+00  5.3512161700020036e+00  5.4001033889865253e+00  5.4479261055684525e+00  5.4946862076594698e+00  5.5403874943621023e+00  5.5850355136174539e+00  5.6286374076158339e+00  5.6712017660653071e+00  5.7127384873291849e+00  5.7532586473732481e+00  5.7927743764054211e+00  5.8312987430435053e+00  5.8688456458086602e+00  5.9054297117128671e+00  5.9410662016860298e+00  5.9757709225720994e+00  6.0095601454122871e+00  6.0424505297268327e+00  6.0744590535035261e+00  6.1056029486014189e+00  6.1358996412805134e+00  6.1653666975730550e+00  6.1940217732182212e+00  6.2218825678896872e+00  6.2489667834542653e+00  6.2752920860090935e+00  6.3008760714548968e+00  6.3257362343731529e+00  6.3498899399854460e+00  6.3733543989839561e+00  6.3961466450325268e+00  6.4182835147482651e+00  6.4397816299837611e+00  6.4606573822401812e+00  6.4809269190510950e+00  6.5006061321863085e+00  6.5197106475341036e+00  6.5382558165288769e+00  6.5562567089996255e+00  6.5737281073225473e+00  6.5906845017686786e+00  6.6071400869446473e+00  6.6231087592314530e+00  6.6386041151327095e+00  6.6536394504497434e+00  6.6682277602068778e+00  6.6823817392555682e+00  6.6961137834911817e+00  6.7094359916210511e+00  6.7223601674269329e+00  6.7348978224692280e+00  6.7470601791843485e+00  6.7588581743302161e+00  6.7703024627385382e+00  6.7814034213355470e+00  6.7921711533961266e+00  6.8026154929989282e+00  6.8127460096528134e+00  6.8225720130674024e+00  6.8321025580427639e+00  6.8413464494554663e+00  6.8503122473201605e+00  6.8590082719077143e+00  6.8674426089026497e+00  6.8756231145841484e+00  6.8835574210165058e+00  6.8912529412360781e+00  6.8987168744232168e+00  6.9059562110487267e+00  6.9129777379855257e+00  6.9197880435771282e+00  6.9263935226555615e+00  6.9328003815020720e+00  6.9390146427449020e+00  6.9450421501889448e+00  6.9508885735729322e+00  6.9565594132502913e+00  6.9620600047903904e+00  6.9673955234974692e+00  6.9725709888448701e+00  6.9775912688227706e+00  6.9824610841979062e+00  6.9871850126841606e+00  6.9917674930231781e+00  6.9962128289745413e+00  7.0005251932152044e+00  7.0047086311481888e+00  7.0087670646207387e+00  7.0127042955523295e+00  7.0165240094730681e+00  7.0202297789732659e+00  7.0238250670649558e+00  7.0273132304564090e+00  7.0306975227407085e+00  7.0339810974995238e+00  7.0371670113234499e+00  7.0402582267501099e+00  7.0432576151215551e+00  7.0461679593622941e+00  7.0489919566795294e+00  7.0517322211870557e+00  7.0543912864544209e+00  7.0569716079829252e+00  7.0594755656099908e+00  7.0619054658435862e+00  7.0642635441282442e+00  7.0665519670443153e+00  7.0687728344420400e+00  7.0709281815120679e+00  7.0730199807939522e+00  7.0750501441242841e+00  7.0770205245259215e+00  7.0789329180399649e+00  7.0807890655018886e+00  7.0825906542634467e+00  7.0843393198617379e+00  7.0860366476369325e+00  7.0876841743000965e+00  7.0892833894524863e+00  7.0908357370577297e+00  7.0923426168682138e+00  7.0938053858070251e+00  7.0952253593067276e+00  7.0966038126062383e+00  7.0979419820070593e+00  7.0992410660900518e+00  7.1005022268939602e+00  7.1017265910568010e+00  7.1029152509212752e+00  7.1040692656052862e+00  7.1051896620386197e+00  7.1062774359668470e+00  7.1073335529234223e+00  7.1083589491710208e+00  7.1093545326130139e+00  7.1103211836760298e+00  7.1112597561645456e+00  7.1121710780883038e+00  7.1130559524635002e+00  7.1139151580885098e+00  7.1147494502949717e+00  7.1155595616750267e+00  7.1163462027854525e+00  7.1171100628294308e+00  7.1178518103166724e+00  7.1185720937025776e+00  7.1192715420071089e+00  7.1199507654140213e+00  7.1206103558511114e+00  7.1212508875520166e+00  7.1218729176002702e+00  7.1224769864560757e+00  7.1230636184664258e+00  7.1236333223590851e+00  7.1241865917209326e+00  7.1247239054612157e+00  7.1252457282601576e+00  7.1257525110034221e+00  7.1262446912028699e+00  7.1267226934040613e+00  7.1271869295809527e+00  7.1276377995181521e+00  7.1280756911811833e+00  7.1285009810751205e+00  7.1289140345919799e+00  7.1293152063472203e+00  7.1297048405057231e+00  7.1300832710975586e+00  7.1304508223239251e+00  7.1308078088535023e+00  7.1311545361095927e+00  7.1314913005483147e+00  7.1318183899281493e+00  7.1321360835710976e+00  7.1324446526157494e+00  7.1327443602625076e+00  7.1330354620112111e+00  7.1333182058914053e+00  7.1335928326855198e+00  7.1338595761451389e+00  7.1341186632006162e+00  7.1343703141642418e+00  7.1346147429271491e+00  7.1348521571501831e+00  7.1350827584489274e+00  7.1353067425730350e+00  7.1355242995800907e+00  7.1357356140041635e+00  7.1359408650191964e+00  7.1361402265974290e+00  7.1363338676629935e+00  7.1365219522408312e+00  7.1367046396011027e+00  7.1368820843991871e+00  7.1370544368114768e+00  7.1372218426670218e+00  7.1373844435752316e+00  7.1375423770496882e+00  7.1376957766282523e+00  7.1378447719895268e+00  7.1379894890658475e+00  7.1381300501528351e+00  7.1382665740156979e+00  7.1383991759923351e+00  7.1385279680933351e+00  7.1386530590990152e+00  7.1387745546535371e+00  7.1388925573562148e+00  7.1390071668501234e+00  7.1391184799080465e+00  7.1392265905158707e+00  7.1393315899535175e+00  7.1394335668734694e+00  7.1395326073769487e+00  7.1396287950878783e+00  7.1397222112246208e+00  7.1398129346696191e+00  7.1399010420369793e+00  7.1399866077380656e+00  7.1400697040451515e+00  7.1401504011532086e+00  7.1402287672398872e+00  7.1403048685237263e+00  7.1403787693206624e+00  7.1404505320988925e+00  7.1405202175321172e+00  7.1405878845512332e+00  7.1406535903945363e+00  7.1407173906564267e+00  7.1407793393347312e+00  7.1408394888766207e+00  7.1408978902232167e+00  7.1409545928528839e+00  7.1410096448232787e+00  7.1410630928121659e+00  7.1411149821570756e+00  7.1411653568937945e+00  7.1412142597937409e+00  7.1412617324002845e+00  7.1413078150639810e+00  7.1413525469768295e+00  7.1413959662055158e+00  7.1414381097237003e+00  7.1414790134433925e+00  7.1415187122453920e+00  7.1415572400088871e+00  7.1415946296401813e+00  7.1416309131005944e+00  7.1416661214335644e+00  7.1417002847909643e+00  7.1417334324586843e+00  7.1417655928814261e+00  7.1417967936868383e+00  7.1418270617089226e+00  7.1418564230107746e+00  7.1418849029066687e+00  7.1419125259834884e+00  7.1419393161215536e+00  7.1419652965148339e+00  7.1419904896905697e+00  7.1420149175283179e+00  7.1420386012784478e+00  7.1420615615800909e+00  7.1420838184785360e+00  7.1421053914421329e+00  7.1421262993786927e+00  7.1421465606513603e+00  7.1421661930940417e+00  7.1421852140263384e+00  7.1422036402680318e+00  7.1422214881531056e+00  7.1422387735433412e+00  7.1422555118414692e+00  7.1422717180038973e+00  7.1422874065530433e+00  7.1423025915892389e+00  7.1423172868022471e+00  7.1423315054823808e+00  7.1423452605312621e+00  7.1423585644721719e+00  7.1423714294600584e+00  7.1423838672911799e+00  7.1423958894123789e+00  7.1424075069300326e+00  7.1424187306186440e+00  7.1424295709291119e+00  7.1424400379966650e+00  7.1424501416484958e+00  7.1424598914110602e+00  7.1424692965170831e+00  7.1424783659122744e+00  7.1424871082617409e+00  7.1424955319561230e+00  7.1425036451174524e+00  7.1425114556047484e+00  7.1425189710193484e+00  7.1425261987099864e+00  7.1425331457776293e+00  7.1425398190800697e+00  7.1425462252362983e+00  7.1425523706306517e+00  7.1425582614167427e+00  7.1425639035211761e+00  7.1425693026470940e+00  7.1425744642774953e+00  7.1425793936783926e+00  7.1425840959017863e+00  7.1425885757884675e+00  7.1425928379706605e+00  7.1425968868744967e+00  7.1426007267223683e+00  7.1426043615351000e+00  7.1426077951340048e+00  7.1426110311428088e+00  7.1426140729894456e+00  7.1426169239077151e+00  7.1426195869388458e+00  7.1426220649329393e+00  7.1426243605502959e+00  7.1426264762626479e+00  7.1426284143542809e+00  7.1426301769230793e+00  7.1426317658814531e+00  7.1426331829571872e+00  7.1426344296942084e+00  7.1426355074532362e+00  7.1426364174123984e+00  7.1426371605677224e+00  7.1426377377335575e+00  7.1426381495429370e+00  7.1426383964478273e+00  7.1426384787193387e+00  7.1426383964478264e+00  7.1426381495429361e+00  7.1426377377335575e+00  7.1426371605677224e+00  7.1426364174124020e+00  7.1426355074532406e+00  7.1426344296942110e+00  7.1426331829571916e+00  7.1426317658814558e+00  7.1426301769230811e+00  7.1426284143542844e+00  7.1426264762626506e+00  7.1426243605503004e+00  7.1426220649329419e+00  7.1426195869388458e+00  7.1426169239077115e+00  7.1426140729894447e+00  7.1426110311428106e+00  7.1426077951340030e+00  7.1426043615350983e+00  7.1426007267223666e+00  7.1425968868744949e+00  7.1425928379706569e+00  7.1425885757884648e+00  7.1425840959017810e+00  7.1425793936783890e+00  7.1425744642774909e+00  7.1425693026470922e+00  7.1425639035211761e+00  7.1425582614167409e+00  7.1425523706306526e+00  7.1425462252363010e+00  7.1425398190800724e+00  7.1425331457776329e+00  7.1425261987099935e+00  7.1425189710193546e+00  7.1425114556047529e+00  7.1425036451174533e+00  7.1424955319561247e+00  7.1424871082617400e+00  7.1424783659122717e+00  7.1424692965170795e+00  7.1424598914110575e+00  7.1424501416484940e+00  7.1424400379966633e+00  7.1424295709291110e+00  7.1424187306186449e+00  7.1424075069300335e+00  7.1423958894123798e+00  7.1423838672911790e+00  7.1423714294600558e+00  7.1423585644721683e+00  7.1423452605312603e+00  7.1423315054823817e+00  7.1423172868022480e+00  7.1423025915892406e+00  7.1422874065530442e+00  7.1422717180038973e+00  7.1422555118414692e+00  7.1422387735433412e+00  7.1422214881531056e+00  7.1422036402680318e+00  7.1421852140263384e+00  7.1421661930940417e+00  7.1421465606513603e+00  7.1421262993786927e+00  7.1421053914421329e+00  7.1420838184785351e+00  7.1420615615800918e+00  7.1420386012784469e+00  7.1420149175283143e+00  7.1419904896905670e+00  7.1419652965148330e+00  7.1419393161215510e+00  7.1419125259834857e+00  7.1418849029066669e+00  7.1418564230107746e+00  7.1418270617089190e+00  7.1417967936868347e+00  7.1417655928814252e+00  7.1417334324586843e+00  7.1417002847909679e+00  7.1416661214335653e+00  7.1416309131005953e+00  7.1415946296401787e+00  7.1415572400088863e+00  7.1415187122453920e+00  7.1414790134433899e+00  7.1414381097237021e+00  7.1413959662055166e+00  7.1413525469768304e+00  7.1413078150639802e+00  7.1412617324002836e+00  7.1412142597937409e+00  7.1411653568937918e+00  7.1411149821570730e+00  7.1410630928121650e+00  7.1410096448232778e+00  7.1409545928528839e+00  7.1408978902232150e+00  7.1408394888766180e+00  7.1407793393347285e+00  7.1407173906564267e+00  7.1406535903945354e+00  7.1405878845512332e+00  7.1405202175321163e+00  7.1404505320988907e+00  7.1403787693206588e+00  7.1403048685237209e+00  7.1402287672398863e+00  7.1401504011532078e+00  7.1400697040451506e+00  7.1399866077380656e+00  7.1399010420369784e+00  7.1398129346696191e+00  7.1397222112246208e+00  7.1396287950878801e+00  7.1395326073769505e+00  7.1394335668734703e+00  7.1393315899535175e+00  7.1392265905158689e+00  7.1391184799080465e+00  7.1390071668501243e+00  7.1388925573562156e+00  7.1387745546535362e+00  7.1386530590990169e+00  7.1385279680933342e+00  7.1383991759923360e+00  7.1382665740156979e+00  7.1381300501528369e+00  7.1379894890658493e+00  7.1378447719895295e+00  7.1376957766282523e+00  7.1375423770496882e+00  7.1373844435752316e+00  7.1372218426670226e+00  7.1370544368114768e+00  7.1368820843991871e+00  7.1367046396010991e+00  7.1365219522408294e+00  7.1363338676629882e+00  7.1361402265974254e+00  7.1359408650191920e+00  7.1357356140041608e+00  7.1355242995800880e+00  7.1353067425730314e+00  7.1350827584489238e+00  7.1348521571501786e+00  7.1346147429271429e+00  7.1343703141642383e+00  7.1341186632006153e+00  7.1338595761451353e+00  7.1335928326855154e+00  7.1333182058914000e+00  7.1330354620112066e+00  7.1327443602625049e+00  7.1324446526157468e+00  7.1321360835710950e+00  7.1318183899281502e+00  7.1314913005483174e+00  7.1311545361095936e+00  7.1308078088535041e+00  7.1304508223239296e+00  7.1300832710975621e+00  7.1297048405057240e+00  7.1293152063472229e+00  7.1289140345919808e+00  7.1285009810751214e+00  7.1280756911811833e+00  7.1276377995181521e+00  7.1271869295809527e+00  7.1267226934040613e+00  7.1262446912028699e+00  7.1257525110034221e+00  7.1252457282601576e+00  7.1247239054612157e+00  7.1241865917209299e+00  7.1236333223590842e+00  7.1230636184664258e+00  7.1224769864560784e+00  7.1218729176002737e+00  7.1212508875520175e+00  7.1206103558511105e+00  7.1199507654140213e+00  7.1192715420071062e+00  7.1185720937025767e+00  7.1178518103166688e+00  7.1171100628294273e+00  7.1163462027854489e+00  7.1155595616750231e+00  7.1147494502949709e+00  7.1139151580885089e+00  7.1130559524635020e+00  7.1121710780883038e+00  7.1112597561645439e+00  7.1103211836760298e+00  7.1093545326130103e+00  7.1083589491710173e+00  7.1073335529234161e+00  7.1062774359668399e+00  7.1051896620386170e+00  7.1040692656052800e+00  7.1029152509212725e+00  7.1017265910567993e+00  7.1005022268939602e+00  7.0992410660900500e+00  7.0979419820070566e+00  7.0966038126062347e+00  7.0952253593067214e+00  7.0938053858070216e+00  7.0923426168682102e+00  7.0908357370577288e+00  7.0892833894524863e+00  7.0876841743000991e+00  7.0860366476369379e+00  7.0843393198617415e+00  7.0825906542634502e+00  7.0807890655018895e+00  7.0789329180399649e+00  7.0770205245259215e+00  7.0750501441242832e+00  7.0730199807939531e+00  7.0709281815120688e+00  7.0687728344420435e+00  7.0665519670443135e+00  7.0642635441282442e+00  7.0619054658435836e+00  7.0594755656099881e+00  7.0569716079829243e+00  7.0543912864544200e+00  7.0517322211870521e+00  7.0489919566795285e+00  7.0461679593622941e+00  7.0432576151215525e+00  7.0402582267501082e+00  7.0371670113234481e+00  7.0339810974995221e+00  7.0306975227407040e+00  7.0273132304564090e+00  7.0238250670649540e+00  7.0202297789732624e+00  7.0165240094730672e+00  7.0127042955523269e+00  7.0087670646207387e+00  7.0047086311481888e+00  7.0005251932152044e+00  6.9962128289745396e+00  6.9917674930231763e+00  6.9871850126841588e+00  6.9824610841979045e+00  6.9775912688227661e+00  6.9725709888448666e+00  6.9673955234974692e+00  6.9620600047903887e+00  6.9565594132502886e+00  6.9508885735729331e+00  6.9450421501889474e+00  6.9390146427449064e+00  6.9328003815020773e+00  6.9263935226555686e+00  6.9197880435771371e+00  6.9129777379855337e+00  6.9059562110487338e+00  6.8987168744232239e+00  6.8912529412360826e+00  6.8835574210165111e+00  6.8756231145841502e+00  6.8674426089026515e+00  6.8590082719077170e+00  6.8503122473201605e+00  6.8413464494554663e+00  6.8321025580427639e+00  6.8225720130674024e+00  6.8127460096528125e+00  6.8026154929989282e+00  6.7921711533961302e+00  6.7814034213355496e+00  6.7703024627385391e+00  6.7588581743302134e+00  6.7470601791843423e+00  6.7348978224692209e+00  6.7223601674269258e+00  6.7094359916210493e+00  6.6961137834911808e+00  6.6823817392555664e+00  6.6682277602068760e+00  6.6536394504497416e+00  6.6386041151327086e+00  6.6231087592314504e+00  6.6071400869446419e+00  6.5906845017686777e+00  6.5737281073225455e+00  6.5562567089996211e+00  6.5382558165288733e+00  6.5197106475341036e+00  6.5006061321863138e+00  6.4809269190510967e+00  6.4606573822401829e+00  6.4397816299837611e+00  6.4182835147482677e+00  6.3961466450325295e+00  6.3733543989839543e+00  6.3498899399854460e+00  6.3257362343731574e+00  6.3008760714549048e+00  6.2752920860091006e+00  6.2489667834542724e+00  6.2218825678896925e+00  6.1940217732182257e+00  6.1653666975730594e+00  6.1358996412805116e+00  6.1056029486014163e+00  6.0744590535035305e+00  6.0424505297268354e+00  6.0095601454122951e+00  5.9757709225721074e+00  5.9410662016860361e+00  5.9054297117128707e+00  5.8688456458086646e+00  5.8312987430435070e+00  5.7927743764054247e+00  5.7532586473732552e+00  5.7127384873291938e+00  5.6712017660653142e+00  5.6286374076158419e+00  5.5850355136174628e+00  5.5403874943621103e+00  5.4946862076594778e+00  5.4479261055684