<?xml version="1.0"?>
<VTKFile type="UnstructuredGrid"  version="0.1"  >
<UnstructuredGrid>
<Piece  NumberOfPoints="1001" NumberOfCells="1000">
<Points>
<DataArray  type="Float64"  NumberOfComponents="3"  format="ascii">0 0 0  0.001 0 0  0.002 0 0  0.003 0 0  0.004 0 0  0.005 0 0  0.006 0 0  0.007 0 0  0.008 0 0  0.008999999999999999 0 0  0.01 0 0  0.011 0 0  0.012 0 0  0.013 0 0  0.014 0 0  0.015 0 0  0.016 0 0  0.017 0 0  0.018 0 0  0.019 0 0  0.02 0 0  0.021 0 0  0.022 0 0  0.023 0 0  0.024 0 0  0.025 0 0  0.026 0 0  0.027 0 0  0.028 0 0  0.029 0 0  0.03 0 0  0.031 0 0  0.032 0 0  0.033 0 0  0.034 0 0  0.035 0 0  0.036 0 0  0.037 0 0  0.038 0 0  0.039 0 0  0.04 0 0  0.041 0 0  0.042 0 0  0.043 0 0  0.044 0 0  0.045 0 0  0.046 0 0  0.047 0 0  0.048 0 0  0.049 0 0  0.05 0 0  0.051 0 0  0.052 0 0  0.053 0 0  0.054 0 0  0.055 0 0  0.056 0 0  0.057 0 0  0.058 0 0  0.059 0 0  0.06 0 0  0.061 0 0  0.062 0 0  0.063 0 0  0.064 0 0  0.065 0 0  0.066 0 0  0.067 0 0  0.068 0 0  0.06900000000000001 0 0  0.07000000000000001 0 0  0.07099999999999999 0 0  0.07199999999999999 0 0  0.073 0 0  0.074 0 0  0.075 0 0  0.076 0 0  0.077 0 0  0.078 0 0  0.079 0 0  0.08 0 0  0.081 0 0  0.082 0 0  0.083 0 0  0.08400000000000001 0 0  0.08500000000000001 0 0  0.08599999999999999 0 0  0.08699999999999999 0 0  0.08799999999999999 0 0  0.089 0 0  0.09 0 0  0.091 0 0  0.092 0 0  0.093 0 0  0.094 0 0  0.095 0 0  0.096 0 0  0.097 0 0  0.098 0 0  0.099 0 0  0.1 0 0  0.101 0 0  0.102 0 0  0.103 0 0  0.104 0 0  0.105 0 0  0.106 0 0  0.107 0 0  0.108 0 0  0.109 0 0  0.11 0 0  0.111 0 0  0.112 0 0  0.113 0 0  0.114 0 0  0.115 0 0  0.116 0 0  0.117 0 0  0.118 0 0  0.119 0 0  0.12 0 0  0.121 0 0  0.122 0 0  0.123 0 0  0.124 0 0  0.125 0 0  0.126 0 0  0.127 0 0  0.128 0 0  0.129 0 0  0.13 0 0  0.131 0 0  0.132 0 0  0.133 0 0  0.134 0 0  0.135 0 0  0.136 0 0  0.137 0 0  0.138 0 0  0.139 0 0  0.14 0 0  0.141 0 0  0.142 0 0  0.143 0 0  0.144 0 0  0.145 0 0  0.146 0 0  0.147 0 0  0.148 0 0  0.149 0 0  0.15 0 0  0.151 0 0  0.152 0 0  0.153 0 0  0.154 0 0  0.155 0 0  0.156 0 0  0.157 0 0  0.158 0 0  0.159 0 0  0.16 0 0  0.161 0 0  0.162 0 0  0.163 0 0  0.164 0 0  0.165 0 0  0.166 0 0  0.167 0 0  0.168 0 0  0.169 0 0  0.17 0 0  0.171 0 0  0.172 0 0  0.173 0 0  0.174 0 0  0.175 0 0  0.176 0 0  0.177 0 0  0.178 0 0  0.179 0 0  0.18 0 0  0.181 0 0  0.182 0 0  0.183 0 0  0.184 0 0  0.185 0 0  0.186 0 0  0.187 0 0  0.188 0 0  0.189 0 0  0.19 0 0  0.191 0 0  0.192 0 0  0.193 0 0  0.194 0 0  0.195 0 0  0.196 0 0  0.197 0 0  0.198 0 0  0.199 0 0  0.2 0 0  0.201 0 0  0.202 0 0  0.203 0 0  0.204 0 0  0.205 0 0  0.206 0 0  0.207 0 0  0.208 0 0  0.209 0 0  0.21 0 0  0.211 0 0  0.212 0 0  0.213 0 0  0.214 0 0  0.215 0 0  0.216 0 0  0.217 0 0  0.218 0 0  0.219 0 0  0.22 0 0  0.221 0 0  0.222 0 0  0.223 0 0  0.224 0 0  0.225 0 0  0.226 0 0  0.227 0 0  0.228 0 0  0.229 0 0  0.23 0 0  0.231 0 0  0.232 0 0  0.233 0 0  0.234 0 0  0.235 0 0  0.236 0 0  0.237 0 0  0.238 0 0  0.239 0 0  0.24 0 0  0.241 0 0  0.242 0 0  0.243 0 0  0.244 0 0  0.245 0 0  0.246 0 0  0.247 0 0  0.248 0 0  0.249 0 0  0.25 0 0  0.251 0 0  0.252 0 0  0.253 0 0  0.254 0 0  0.255 0 0  0.256 0 0  0.257 0 0  0.258 0 0  0.259 0 0  0.26 0 0  0.261 0 0  0.262 0 0  0.263 0 0  0.264 0 0  0.265 0 0  0.266 0 0  0.267 0 0  0.268 0 0  0.269 0 0  0.27 0 0  0.271 0 0  0.272 0 0  0.273 0 0  0.274 0 0  0.275 0 0  0.276 0 0  0.277 0 0  0.278 0 0  0.279 0 0  0.28 0 0  0.281 0 0  0.282 0 0  0.283 0 0  0.284 0 0  0.285 0 0  0.286 0 0  0.287 0 0  0.288 0 0  0.289 0 0  0.29 0 0  0.291 0 0  0.292 0 0  0.293 0 0  0.294 0 0  0.295 0 0  0.296 0 0  0.297 0 0  0.298 0 0  0.299 0 0  0.3 0 0  0.301 0 0  0.302 0 0  0.303 0 0  0.304 0 0  0.305 0 0  0.306 0 0  0.307 0 0  0.308 0 0  0.309 0 0  0.31 0 0  0.311 0 0  0.312 0 0  0.313 0 0  0.314 0 0  0.315 0 0  0.316 0 0  0.317 0 0  0.318 0 0  0.319 0 0  0.32 0 0  0.321 0 0  0.322 0 0  0.323 0 0  0.324 0 0  0.325 0 0  0.326 0 0  0.327 0 0  0.328 0 0  0.329 0 0  0.33 0 0  0.331 0 0  0.332 0 0  0.333 0 0  0.334 0 0  0.335 0 0  0.336 0 0  0.337 0 0  0.338 0 0  0.339 0 0  0.34 0 0  0.341 0 0  0.342 0 0  0.343 0 0  0.344 0 0  0.345 0 0  0.346 0 0  0.347 0 0  0.348 0 0  0.349 0 0  0.35 0 0  0.351 0 0  0.352 0 0  0.353 0 0  0.354 0 0  0.355 0 0  0.356 0 0  0.357 0 0  0.358 0 0  0.359 0 0  0.36 0 0  0.361 0 0  0.362 0 0  0.363 0 0  0.364 0 0  0.365 0 0  0.366 0 0  0.367 0 0  0.368 0 0  0.369 0 0  0.37 0 0  0.371 0 0  0.372 0 0  0.373 0 0  0.374 0 0  0.375 0 0  0.376 0 0  0.377 0 0  0.378 0 0  0.379 0 0  0.38 0 0  0.381 0 0  0.382 0 0  0.383 0 0  0.384 0 0  0.385 0 0  0.386 0 0  0.387 0 0  0.388 0 0  0.389 0 0  0.39 0 0  0.391 0 0  0.392 0 0  0.393 0 0  0.394 0 0  0.395 0 0  0.396 0 0  0.397 0 0  0.398 0 0  0.399 0 0  0.4 0 0  0.401 0 0  0.402 0 0  0.403 0 0  0.404 0 0  0.405 0 0  0.406 0 0  0.407 0 0  0.408 0 0  0.409 0 0  0.41 0 0  0.411 0 0  0.412 0 0  0.413 0 0  0.414 0 0  0.415 0 0  0.416 0 0  0.417 0 0  0.418 0 0  0.419 0 0  0.42 0 0  0.421 0 0  0.422 0 0  0.423 0 0  0.424 0 0  0.425 0 0  0.426 0 0  0.427 0 0  0.428 0 0  0.429 0 0  0.43 0 0  0.431 0 0  0.432 0 0  0.433 0 0  0.434 0 0  0.435 0 0  0.436 0 0  0.437 0 0  0.438 0 0  0.439 0 0  0.44 0 0  0.441 0 0  0.442 0 0  0.443 0 0  0.444 0 0  0.445 0 0  0.446 0 0  0.447 0 0  0.448 0 0  0.449 0 0  0.45 0 0  0.451 0 0  0.452 0 0  0.453 0 0  0.454 0 0  0.455 0 0  0.456 0 0  0.457 0 0  0.458 0 0  0.459 0 0  0.46 0 0  0.461 0 0  0.462 0 0  0.463 0 0  0.464 0 0  0.465 0 0  0.466 0 0  0.467 0 0  0.468 0 0  0.469 0 0  0.47 0 0  0.471 0 0  0.472 0 0  0.473 0 0  0.474 0 0  0.475 0 0  0.476 0 0  0.477 0 0  0.478 0 0  0.479 0 0  0.48 0 0  0.481 0 0  0.482 0 0  0.483 0 0  0.484 0 0  0.485 0 0  0.486 0 0  0.487 0 0  0.488 0 0  0.489 0 0  0.49 0 0  0.491 0 0  0.492 0 0  0.493 0 0  0.494 0 0  0.495 0 0  0.496 0 0  0.497 0 0  0.498 0 0  0.499 0 0  0.5 0 0  0.501 0 0  0.502 0 0  0.503 0 0  0.504 0 0  0.505 0 0  0.506 0 0  0.507 0 0  0.508 0 0  0.509 0 0  0.51 0 0  0.511 0 0  0.512 0 0  0.513 0 0  0.514 0 0  0.515 0 0  0.516 0 0  0.517 0 0  0.518 0 0  0.519 0 0  0.52 0 0  0.521 0 0  0.522 0 0  0.523 0 0  0.524 0 0  0.525 0 0  0.526 0 0  0.527 0 0  0.528 0 0  0.529 0 0  0.53 0 0  0.531 0 0  0.532 0 0  0.533 0 0  0.534 0 0  0.535 0 0  0.536 0 0  0.537 0 0  0.538 0 0  0.539 0 0  0.54 0 0  0.541 0 0  0.542 0 0  0.543 0 0  0.544 0 0  0.545 0 0  0.546 0 0  0.547 0 0  0.548 0 0  0.549 0 0  0.55 0 0  0.551 0 0  0.552 0 0  0.553 0 0  0.554 0 0  0.555 0 0  0.556 0 0  0.5570000000000001 0 0  0.5580000000000001 0 0  0.5590000000000001 0 0  0.5600000000000001 0 0  0.5610000000000001 0 0  0.5620000000000001 0 0  0.5629999999999999 0 0  0.5639999999999999 0 0  0.5649999999999999 0 0  0.5659999999999999 0 0  0.5669999999999999 0 0  0.5679999999999999 0 0  0.569 0 0  0.57 0 0  0.571 0 0  0.572 0 0  0.573 0 0  0.574 0 0  0.575 0 0  0.576 0 0  0.577 0 0  0.578 0 0  0.579 0 0  0.58 0 0  0.581 0 0  0.582 0 0  0.583 0 0  0.584 0 0  0.585 0 0  0.586 0 0  0.587 0 0  0.588 0 0  0.589 0 0  0.59 0 0  0.591 0 0  0.592 0 0  0.593 0 0  0.594 0 0  0.595 0 0  0.596 0 0  0.597 0 0  0.598 0 0  0.599 0 0  0.6 0 0  0.601 0 0  0.602 0 0  0.603 0 0  0.604 0 0  0.605 0 0  0.606 0 0  0.607 0 0  0.608 0 0  0.609 0 0  0.61 0 0  0.611 0 0  0.612 0 0  0.613 0 0  0.614 0 0  0.615 0 0  0.616 0 0  0.617 0 0  0.618 0 0  0.619 0 0  0.62 0 0  0.621 0 0  0.622 0 0  0.623 0 0  0.624 0 0  0.625 0 0  0.626 0 0  0.627 0 0  0.628 0 0  0.629 0 0  0.63 0 0  0.631 0 0  0.632 0 0  0.633 0 0  0.634 0 0  0.635 0 0  0.636 0 0  0.637 0 0  0.638 0 0  0.639 0 0  0.64 0 0  0.641 0 0  0.642 0 0  0.643 0 0  0.644 0 0  0.645 0 0  0.646 0 0  0.647 0 0  0.648 0 0  0.649 0 0  0.65 0 0  0.651 0 0  0.652 0 0  0.653 0 0  0.654 0 0  0.655 0 0  0.656 0 0  0.657 0 0  0.658 0 0  0.659 0 0  0.66 0 0  0.661 0 0  0.662 0 0  0.663 0 0  0.664 0 0  0.665 0 0  0.666 0 0  0.667 0 0  0.668 0 0  0.669 0 0  0.67 0 0  0.671 0 0  0.672 0 0  0.673 0 0  0.674 0 0  0.675 0 0  0.676 0 0  0.677 0 0  0.678 0 0  0.679 0 0  0.68 0 0  0.681 0 0  0.6820000000000001 0 0  0.6830000000000001 0 0  0.6840000000000001 0 0  0.6850000000000001 0 0  0.6860000000000001 0 0  0.6870000000000001 0 0  0.6879999999999999 0 0  0.6889999999999999 0 0  0.6899999999999999 0 0  0.6909999999999999 0 0  0.6919999999999999 0 0  0.6929999999999999 0 0  0.694 0 0  0.695 0 0  0.696 0 0  0.697 0 0  0.698 0 0  0.699 0 0  0.7 0 0  0.701 0 0  0.702 0 0  0.703 0 0  0.704 0 0  0.705 0 0  0.706 0 0  0.707 0 0  0.708 0 0  0.709 0 0  0.71 0 0  0.711 0 0  0.712 0 0  0.713 0 0  0.714 0 0  0.715 0 0  0.716 0 0  0.717 0 0  0.718 0 0  0.719 0 0  0.72 0 0  0.721 0 0  0.722 0 0  0.723 0 0  0.724 0 0  0.725 0 0  0.726 0 0  0.727 0 0  0.728 0 0  0.729 0 0  0.73 0 0  0.731 0 0  0.732 0 0  0.733 0 0  0.734 0 0  0.735 0 0  0.736 0 0  0.737 0 0  0.738 0 0  0.739 0 0  0.74 0 0  0.741 0 0  0.742 0 0  0.743 0 0  0.744 0 0  0.745 0 0  0.746 0 0  0.747 0 0  0.748 0 0  0.749 0 0  0.75 0 0  0.751 0 0  0.752 0 0  0.753 0 0  0.754 0 0  0.755 0 0  0.756 0 0  0.757 0 0  0.758 0 0  0.759 0 0  0.76 0 0  0.761 0 0  0.762 0 0  0.763 0 0  0.764 0 0  0.765 0 0  0.766 0 0  0.767 0 0  0.768 0 0  0.769 0 0  0.77 0 0  0.771 0 0  0.772 0 0  0.773 0 0  0.774 0 0  0.775 0 0  0.776 0 0  0.777 0 0  0.778 0 0  0.779 0 0  0.78 0 0  0.781 0 0  0.782 0 0  0.783 0 0  0.784 0 0  0.785 0 0  0.786 0 0  0.787 0 0  0.788 0 0  0.789 0 0  0.79 0 0  0.791 0 0  0.792 0 0  0.793 0 0  0.794 0 0  0.795 0 0  0.796 0 0  0.797 0 0  0.798 0 0  0.799 0 0  0.8 0 0  0.801 0 0  0.802 0 0  0.803 0 0  0.804 0 0  0.805 0 0  0.806 0 0  0.8070000000000001 0 0  0.8080000000000001 0 0  0.8090000000000001 0 0  0.8100000000000001 0 0  0.8110000000000001 0 0  0.8120000000000001 0 0  0.8129999999999999 0 0  0.8139999999999999 0 0  0.8149999999999999 0 0  0.8159999999999999 0 0  0.8169999999999999 0 0  0.8179999999999999 0 0  0.819 0 0  0.82 0 0  0.821 0 0  0.822 0 0  0.823 0 0  0.824 0 0  0.825 0 0  0.826 0 0  0.827 0 0  0.828 0 0  0.829 0 0  0.83 0 0  0.831 0 0  0.832 0 0  0.833 0 0  0.834 0 0  0.835 0 0  0.836 0 0  0.837 0 0  0.838 0 0  0.839 0 0  0.84 0 0  0.841 0 0  0
[...]
<PointData  Scalars="f_20-0"> 
<DataArray  type="Float64"  Name="f_20-0"  format="ascii">2.0000000177114932e+00  2.0000000178871993e+00  2.0000000184175830e+00  2.0000000193125054e+00  2.0000000205885873e+00  2.0000000222695005e+00  2.0000000243863747e+00  2.0000000269783325e+00  2.0000000300931653e+00  2.0000000337881518e+00  2.0000000381310312e+00  2.0000000432011666e+00  2.0000000490908869e+00  2.0000000559070505e+00  2.0000000637728457e+00  2.0000000728298617e+00  2.0000000832404501e+00  2.0000000951904271e+00  2.0000001088921504e+00  2.0000001245880172e+00  2.0000001425544434e+00  2.0000001631063711e+00  2.0000001866023842e+00  2.0000002134504977e+00  2.0000002441147164e+00  2.0000002791224549e+00  2.0000003190729245e+00  2.0000003646466076e+00  2.0000004166159662e+00  2.0000004758575343e+00  2.0000005433655517e+00  2.0000006202673606e+00  2.0000007078407580e+00  2.0000008075335538e+00  2.0000009209856136e+00  2.0000010500536827e+00  2.0000011968393383e+00  2.0000013637204401e+00  2.0000015533865270e+00  2.0000017688786107e+00  2.0000020136339196e+00  2.0000022915361777e+00  2.0000026069720822e+00  2.0000029648947253e+00  2.0000033708947864e+00  2.0000038312804063e+00  2.0000043531667830e+00  2.0000049445766197e+00  2.0000056145527072e+00  2.0000063732840556e+00  2.0000072322471381e+00  2.0000082043640193e+00  2.0000093041792941e+00  2.0000105480580119e+00  2.0000119544069794e+00  2.0000135439221118e+00  2.0000153398647789e+00  2.0000173683704312e+00  2.0000196587931223e+00  2.0000222440899691e+00  2.0000251612499746e+00  2.0000284517721569e+00  2.0000321621984294e+00  2.0000363447072389e+00  2.0000410577746286e+00  2.0000463669100559e+00  2.0000523454750763e+00  2.0000590755938350e+00  2.0000666491652037e+00  2.0000751689874359e+00  2.0000847500072769e+00  2.0000955207066897e+00  2.0001076246416480e+00  2.0001212221489024e+00  2.0001364922381693e+00  2.0001536346888842e+00  2.0001728723725676e+00  2.0001944538238035e+00  2.0002186560850603e+00  2.0002457878529722e+00  2.0002761929562429e+00  2.0003102541981725e+00  2.0003483975998044e+00  2.0003910970829706e+00  2.0004388796360275e+00  2.0004923310088696e+00  2.0005521019879047e+00  2.0006189153060179e+00  2.0006935732472648e+00  2.0007769660110339e+00  2.0008700809057309e+00  2.0009740124477307e+00  2.0010899734473373e+00  2.0012193071698330e+00  2.0013635006663475e+00  2.0015241993762833e+00  2.0017032231103000e+00  2.0019025835303585e+00  2.0021245032511028e+00  2.0023714366947347e+00  2.0026460928395213e+00  2.0029514600099887e+00  2.0032908328646983e+00  2.0036678417449862e+00  2.0040864845550526e+00  2.0045511613501077e+00  2.0050667118145840e+00  2.0056384558164297e+00  2.0062722372257702e+00  2.0069744711863668e+00  2.0077521950256960e+00  2.0086131229835367e+00  2.0095657049289448e+00  2.0106191892205523e+00  2.0117836898442820e+00  2.0130702579347433e+00  2.0144909577504944e+00  2.0160589471276227e+00  2.0177885623792244e+00  2.0196954075385900e+00  2.0217964477594643e+00  2.0241101065856917e+00  2.0266563666828445e+00  2.0294568734840812e+00  2.0325350410394387e+00  2.0359161591702120e+00  2.0396275008164388e+00  2.0436984282246402e+00  2.0481604963543747e+00  2.0530475515862787e+00  2.0583958234925901e+00  2.0642440070869101e+00  2.0706333326080704e+00  2.0776076195207760e+00  2.0852133110433426e+00  2.0934994851532998e+00  2.1025178376917788e+00  2.1123226329075679e+00  2.1229706165756741e+00  2.1345208867207610e+00  2.1470347170036068e+00  2.1605753280214057e+00  2.1752076021637081e+00  2.1909977382869701e+00  2.2080128433500952e+00  2.2263204593120567e+00  2.2459880250410369e+00  2.2670822747190016e+00  2.2896685762245284e+00  2.3138102151980546e+00  2.3395676328722144e+00  2.3669976281975660e+00  2.3961525372005248e+00  2.4270794047482926e+00  2.4598191658255204e+00  2.4944058549081864e+00  2.5308658629181942e+00  2.5692172614444533e+00  2.6094692133414159e+00  2.6516214874250879e+00  2.6956640927900266e+00  2.7415770453325923e+00  2.7893302755014822e+00  2.8388836822676082e+00  2.8901873340078712e+00  2.9431818126472393e+00  2.9977986932205458e+00  3.0539611472055981e+00  3.1115846547199917e+00  3.1705778081019851e+00  3.2308431875985031e+00  3.2922782888967199e+00  3.3547764820453745e+00  3.4182279818593333e+00  3.4825208110915606e+00  3.5475417393716335e+00  3.6131771830160662e+00  3.6793140531771158e+00  3.7458405422832874e+00  3.8126468412194181e+00  3.8796257820980817e+00  3.9466734037087252e+00  4.0136894387395357e+00  4.0805777236129890e+00  4.1472465332411881e+00  4.2136088441890847e+00  4.2795825306423190e+00  4.3450904982309568e+00  4.4100607611863163e+00  4.4744264685345954e+00  4.5381258850886450e+00  4.6011023329184493e+00  4.6633040987904284e+00  4.7246843127921370e+00  4.7852008030255302e+00  4.8448159308793786e+00  4.9034964109965040e+00  4.9612131196481677e+00  5.0179408948279409e+00  5.0736583309884455e+00  5.1283475709736557e+00  5.1819940973510263e+00  5.2345865250243850e+00  5.2861163967122726e+00  5.3365779826073894e+00  5.3859680852909406e+00  5.4342858507602063e+00  5.4815325862372575e+00  5.5277115852598158e+00  5.5728279604102537e+00  5.6168884839136632e+00  5.6599014362291253e+00  5.7018764626678466e+00  5.7428244379960631e+00  5.7827573389178530e+00  5.8216881242817786e+00  5.8596306228139792e+00  5.8965994281479990e+00  5.9326098008967429e+00  5.9676775774935900e+00  6.0018190855170754e+00  6.0350510652053444e+00  6.0673905968627526e+00  6.0988550338600973e+00  6.1294619409321482e+00  6.1592290374803067e+00  6.1881741455944184e+00  6.2163151425152483e+00  6.2436699172677637e+00  6.2702563312049104e+00  6.2960921822116038e+00  6.3211951723291948e+00  6.3455828785714008e+00  6.3692727267135449e+00  6.3922819678477572e+00  6.4146276575075607e+00  6.4363266371758501e+00  6.4573955180004265e+00  6.4778506665515501e+00  6.4977081924653763e+00  6.5169839378267680e+00  6.5356934681537622e+00  6.5538520648546852e+00  6.5714747190371421e+00  6.5885761265558340e+00  6.6051706841937445e+00  6.6212724868782011e+00  6.6368953258400332e+00  6.6520526876304071e+00  6.6667577539158378e+00  6.6810234019775461e+00  6.6948622058466318e+00  6.7082864380114735e+00  6.7213080716384788e+00  6.7339387832516993e+00  6.7461899558209506e+00  6.7580726822118535e+00  6.7695977689549540e+00  6.7807757402942830e+00  6.7916168424790504e+00  6.8021310482649007e+00  6.8123280615940534e+00  6.8222173224261464e+00  6.8318080116939361e+00  6.8411090563602910e+00  6.8501291345548756e+00  6.8588766807709689e+00  6.8673598911044405e+00  6.8755867285187344e+00  6.8835649281211095e+00  6.8913020024368592e+00  6.8988052466694860e+00  6.9060817439360909e+00  6.9131383704682561e+00  6.9199818007697891e+00  6.9266185127236604e+00  6.9330547926412667e+00  6.9392967402480634e+00  6.9453502736002308e+00  6.9512211339278291e+00  6.9569148904004692e+00  6.9624369448120653e+00  6.9677925361818707e+00  6.9729867452693419e+00  6.9780244990009344e+00  6.9829105748072529e+00  6.9876496048693628e+00  6.9922460802734676e+00  6.9967043550733248e+00  7.0010286502601797e+00  7.0052230576401628e+00  7.0092915436193310e+00  7.0132379528967590e+00  7.0170660120662403e+00  7.0207793331273392e+00  7.0243814169066185e+00  7.0278756563901075e+00  7.0312653399680611e+00  7.0345536545932363e+00  7.0377436888539835e+00  7.0408384359634812e+00  7.0438407966665944e+00  7.0467535820657812e+00  7.0495795163675963e+00  7.0523212395513575e+00  7.0549813099615335e+00  7.0575622068255113e+00  7.0600663326983142e+00  7.0624960158359382e+00  7.0648535124989555e+00  7.0671410091879974e+00  7.0693606248127967e+00  7.0715144127964038e+00  7.0736043631161669e+00  7.0756324042831533e+00  7.0776004052615731e+00  7.0795101773297491e+00  7.0813634758842801e+00  7.0831620021888142e+00  7.0849074050690781e+00  7.0866012825555140e+00  7.0882451834751379e+00  7.0898406089938826e+00  7.0913890141110061e+00  7.0928918091068240e+00  7.0943503609451710e+00  7.0957659946319307e+00  7.0971399945308518e+00  7.0984736056380235e+00  7.0997680348161651e+00  7.1010244519899519e+00  7.1022439913035935e+00  7.1034277522417559e+00  7.1045768007149803e+00  7.1056921701106814e+00  7.1067748623107825e+00  7.1078258486770221e+00  7.1088460710049333e+00  7.1098364424474738e+00  7.1107978484092582e+00  7.1117311474123177e+00  7.1126371719342645e+00  7.1135167292197821e+00  7.1143706020662059e+00  7.1151995495841014e+00  7.1160043079335811e+00  7.1167855910371518e+00  7.1175440912698260e+00  7.1182804801272717e+00  7.1189954088726370e+00  7.1196895091627921e+00  7.1203633936546158e+00  7.1210176565919934e+00  7.1216528743741234e+00  7.1222696061057489e+00  7.1228683941299176e+00  7.1234497645437935e+00  7.1240142276980887e+00  7.1245622786806750e+00  7.1250943977848333e+00  7.1256110509626751e+00  7.1261126902642120e+00  7.1265997542625339e+00  7.1270726684655417e+00  7.1275318457146906e+00  7.1279776865711435e+00  7.1284105796897341e+00  7.1288309021812006e+00  7.1292390199629780e+00  7.1296352880989762e+00  7.1300200511287191e+00  7.1303936433861281e+00  7.1307563893083277e+00  7.1311086037348037e+00  7.1314505921972016e+00  7.1317826512000710e+00  7.1321050684928737e+00  7.1324181233335109e+00  7.1327220867436525e+00  7.1330172217561429e+00  7.1333037836547364e+00  7.1335820202063909e+00  7.1338521718863834e+00  7.1341144720964778e+00  7.1343691473763400e+00  7.1346164176084663e+00  7.1348564962167895e+00  7.1350895903591844e+00  7.1353159011140770e+00  7.1355356236613270e+00  7.1357489474575795e+00  7.1359560564062745e+00  7.1361571290224468e+00  7.1363523385925340e+00  7.1365418533293026e+00  7.1367258365220909e+00  7.1369044466824922e+00  7.1370778376856094e+00  7.1372461589070841e+00  7.1374095553559487e+00  7.1375681678035026e+00  7.1377221329082952e+00  7.1378715833373887e+00  7.1380166478839353e+00  7.1381574515812920e+00  7.1382941158136699e+00  7.1384267584235204e+00  7.1385554938157219e+00  7.1386804330586315e+00  7.1388016839821793e+00  7.1389193512730245e+00  7.1390335365669051e+00  7.1391443385382543e+00  7.1392518529871944e+00  7.1393561729239075e+00  7.1394573886505839e+00  7.1395555878409445e+00  7.1396508556174076e+00  7.1397432746260217e+00  7.1398329251091770e+00  7.1399198849762238e+00  7.1400042298720052e+00  7.1400860332433780e+00  7.1401653664038349e+00  7.1402422985962017e+00  7.1403168970535189e+00  7.1403892270581713e+00  7.1404593519992599e+00  7.1405273334283104e+00  7.1405932311133640e+00  7.1406571030914696e+00  7.1407190057196352e+00  7.1407789937242843e+00  7.1408371202492287e+00  7.1408934369022372e+00  7.1409479938001805e+00  7.1410008396128353e+00  7.1410520216053257e+00  7.1411015856792872e+00  7.1411495764127180e+00  7.1411960370985916e+00  7.1412410097822159e+00  7.1412845352973990e+00  7.1413266533013982e+00  7.1413674023086759e+00  7.1414068197235467e+00  7.1414449418716126e+00  7.1414818040301231e+00  7.1415174404571804e+00  7.1415518844198793e+00  7.1415851682213187e+00  7.1416173232265843e+00  7.1416483798876520e+00  7.1416783677672502e+00  7.1417073155617237e+00  7.1417352511228511e+00  7.1417622014786986e+00  7.1417881928535083e+00  7.1418132506866145e+00  7.1418373996504441e+00  7.1418606636676172e+00  7.1418830659271517e+00  7.1419046288998027e+00  7.1419253743525832e+00  7.1419453233624672e+00  7.1419644963293250e+00  7.1419829129880794e+00  7.1420005924201657e+00  7.1420175530642886e+00  7.1420338127265035e+00  7.1420493885896663e+00  7.1420642972222979e+00  7.1420785545868304e+00  7.1420921760473526e+00  7.1421051763768073e+00  7.1421175697636938e+00  7.1421293698183286e+00  7.1421405895786609e+00  7.1421512415156654e+00  7.1421613375383641e+00  7.1421708889984723e+00  7.1421799066947083e+00  7.1421884008767806e+00  7.1421963812490699e+00  7.1422038569740351e+00  7.1422108366753383e+00  7.1422173284407435e+00  7.1422233398247474e+00  7.1422288778509992e+00  7.1422339490145230e+00  7.1422385592837125e+00  7.1422427141021494e+00  7.1422464183902310e+00  7.1422496765466343e+00  7.1422524924495852e+00  7.1422548694579922e+00  7.1422568104124045e+00  7.1422583176358163e+00  7.1422593929343332e+00  7.1422600375976586e+00  7.1422602523994767e+00  7.1422600375976595e+00  7.1422593929343350e+00  7.1422583176358216e+00  7.1422568104124053e+00  7.1422548694579922e+00  7.1422524924495843e+00  7.1422496765466326e+00  7.1422464183902283e+00  7.1422427141021467e+00  7.1422385592837117e+00  7.1422339490145195e+00  7.1422288778509948e+00  7.1422233398247412e+00  7.1422173284407409e+00  7.1422108366753347e+00  7.1422038569740298e+00  7.1421963812490681e+00  7.1421884008767789e+00  7.1421799066947074e+00  7.1421708889984705e+00  7.1421613375383597e+00  7.1421512415156609e+00  7.1421405895786547e+00  7.1421293698183224e+00  7.1421175697636858e+00  7.1421051763768011e+00  7.1420921760473473e+00  7.1420785545868251e+00  7.1420642972222934e+00  7.1420493885896654e+00  7.1420338127265017e+00  7.1420175530642878e+00  7.1420005924201639e+00  7.1419829129880767e+00  7.1419644963293232e+00  7.1419453233624655e+00  7.1419253743525797e+00  7.1419046288997983e+00  7.1418830659271499e+00  7.1418606636676136e+00  7.1418373996504378e+00  7.1418132506866074e+00  7.1417881928535074e+00  7.1417622014787003e+00  7.1417352511228511e+00  7.1417073155617263e+00  7.1416783677672493e+00  7.1416483798876476e+00  7.1416173232265807e+00  7.1415851682213169e+00  7.1415518844198802e+00  7.1415174404571804e+00  7.1414818040301222e+00  7.1414449418716117e+00  7.1414068197235476e+00  7.1413674023086777e+00  7.1413266533013982e+00  7.1412845352974044e+00  7.1412410097822168e+00  7.1411960370985925e+00  7.1411495764127206e+00  7.1411015856792899e+00  7.1410520216053284e+00  7.1410008396128362e+00  7.1409479938001850e+00  7.1408934369022390e+00  7.1408371202492322e+00  7.1407789937242852e+00  7.1407190057196352e+00  7.1406571030914670e+00  7.1405932311133622e+00  7.1405273334283086e+00  7.1404593519992590e+00  7.1403892270581713e+00  7.1403168970535180e+00  7.1402422985962009e+00  7.1401653664038367e+00  7.1400860332433806e+00  7.1400042298720043e+00  7.1399198849762255e+00  7.1398329251091788e+00  7.1397432746260208e+00  7.1396508556174068e+00  7.1395555878409400e+00  7.1394573886505803e+00  7.1393561729239039e+00  7.1392518529871936e+00  7.1391443385382560e+00  7.1390335365669060e+00  7.1389193512730236e+00  7.1388016839821811e+00  7.1386804330586342e+00  7.1385554938157219e+00  7.1384267584235213e+00  7.1382941158136690e+00  7.1381574515812920e+00  7.1380166478839389e+00  7.1378715833373905e+00  7.1377221329082978e+00  7.1375681678035026e+00  7.1374095553559487e+00  7.1372461589070841e+00  7.1370778376856103e+00  7.1369044466824887e+00  7.1367258365220900e+00  7.1365418533292999e+00  7.1363523385925323e+00  7.1361571290224459e+00  7.1359560564062727e+00  7.1357489474575777e+00  7.1355356236613217e+00  7.1353159011140752e+00  7.1350895903591836e+00  7.1348564962167895e+00  7.1346164176084663e+00  7.1343691473763400e+00  7.1341144720964778e+00  7.1338521718863834e+00  7.1335820202063909e+00  7.1333037836547364e+00  7.1330172217561429e+00  7.1327220867436525e+00  7.1324181233335109e+00  7.1321050684928782e+00  7.1317826512000719e+00  7.1314505921972016e+00  7.1311086037348046e+00  7.1307563893083286e+00  7.1303936433861299e+00  7.1300200511287208e+00  7.1296352880989753e+00  7.1292390199629763e+00  7.1288309021812006e+00  7.1284105796897341e+00  7.1279776865711435e+00  7.1275318457146941e+00  7.1270726684655434e+00  7.1265997542625374e+00  7.1261126902642182e+00  7.1256110509626822e+00  7.1250943977848413e+00  7.1245622786806830e+00  7.1240142276980958e+00  7.1234497645437962e+00  7.1228683941299211e+00  7.1222696061057489e+00  7.1216528743741234e+00  7.1210176565919934e+00  7.1203633936546131e+00  7.1196895091627885e+00  7.1189954088726335e+00  7.1182804801272690e+00  7.1175440912698251e+00  7.1167855910371474e+00  7.1160043079335793e+00  7.1151995495840987e+00  7.1143706020662050e+00  7.1135167292197821e+00  7.1126371719342654e+00  7.1117311474123186e+00  7.1107978484092600e+00  7.1098364424474747e+00  7.1088460710049342e+00  7.1078258486770221e+00  7.1067748623107825e+00  7.1056921701106814e+00  7.1045768007149812e+00  7.1034277522417577e+00  7.1022439913035935e+00  7.1010244519899519e+00  7.0997680348161651e+00  7.0984736056380235e+00  7.0971399945308509e+00  7.0957659946319325e+00  7.0943503609451746e+00  7.0928918091068240e+00  7.0913890141110043e+00  7.0898406089938808e+00  7.0882451834751334e+00  7.0866012825555122e+00  7.0849074050690728e+00  7.0831620021888133e+00  7.0813634758842774e+00  7.0795101773297473e+00  7.0776004052615704e+00  7.0756324042831524e+00  7.0736043631161660e+00  7.0715144127964029e+00  7.0693606248127976e+00  7.0671410091879947e+00  7.0648535124989555e+00  7.0624960158359400e+00  7.0600663326983142e+00  7.0575622068255139e+00  7.0549813099615326e+00  7.0523212395513539e+00  7.0495795163675963e+00  7.0467535820657812e+00  7.0438407966665944e+00  7.0408384359634795e+00  7.0377436888539817e+00  7.0345536545932354e+00  7.0312653399680585e+00  7.0278756563901066e+00  7.0243814169066177e+00  7.0207793331273409e+00  7.0170660120662429e+00  7.0132379528967608e+00  7.0092915436193328e+00  7.0052230576401637e+00  7.0010286502601788e+00  6.9967043550733230e+00  6.9922460802734649e+00  6.9876496048693619e+00  6.9829105748072529e+00  6.9780244990009344e+00  6.9729867452693419e+00  6.9677925361818707e+00  6.9624369448120653e+00  6.9569148904004692e+00  6.9512211339278300e+00  6.9453502736002291e+00  6.9392967402480634e+00  6.9330547926412684e+00  6.9266185127236621e+00  6.9199818007697917e+00  6.9131383704682570e+00  6.9060817439360935e+00  6.8988052466694851e+00  6.8913020024368574e+00  6.8835649281211095e+00  6.8755867285187344e+00  6.8673598911044405e+00  6.8588766807709689e+00  6.8501291345548756e+00  6.8411090563602874e+00  6.8318080116939361e+00  6.8222173224261446e+00  6.8123280615940525e+00  6.8021310482649007e+00  6.7916168424790513e+00  6.7807757402942839e+00  6.7695977689549540e+00  6.7580726822118562e+00  6.7461899558209524e+00  6.7339387832517001e+00  6.7213080716384797e+00  6.7082864380114753e+00  6.6948622058466380e+00  6.6810234019775532e+00  6.6667577539158467e+00  6.6520526876304169e+00  6.6368953258400429e+00  6.6212724868782082e+00  6.6051706841937516e+00  6.5885761265558394e+00  6.5714747190371501e+00  6.5538520648546932e+00  6.5356934681537693e+00  6.5169839378267760e+00  6.4977081924653808e+00  6.4778506665515554e+00  6.4573955180004328e+00  6.4363266371758519e+00  6.4146276575075660e+00  6.3922819678477580e+00  6.3692727267135476e+00  6.3455828785714044e+00  6.3211951723291957e+00  6.2960921822116038e+00  6.2702563312049104e+00  6.2436699172677637e+00  6.2163151425152492e+00  6.1881741455944193e+00  6.1592290374803067e+00  6.1294619409321491e+00  6.0988550338600982e+00  6.0673905968627526e+00  6.0350510652053453e+00  6.0018190855170781e+00  5.9676775774935926e+00  5.9326098008967429e+00  5.8965994281479999e+00  5.8596306228139783e+00  5.8216881242817768e+00  5.7827573389178522e+00  5.7428244379960631e+00  5.7018764626678458e+00  5.6599014362291244e+00  5.6168884839136597e+00  5.5728279604102520e+00  5.5277115852598140e+00  5.4815325862372584e+00  5.4342858507602063e+00  5.3859680852909406e+00  5.3365779826073894e+00  5.2861163967122717e+00  5.2345865250243850e+00  5.1819940973510263e+00  5.1283475709736557e+00  5.0736583309884447e+00  5.0179408948279436e+00  4.9612131196481686e+00  4.9034964109965014e+00  4.8448159308793795e+00  4.7852008030255266e+00  4.7246843127921352e+00  4.6633040987904266e+00  4.6011023329184448e+00  4.5381258850886423e+00  4.4744264685345936e+00  4.4100607611863172e+00  4.3450904982309666e+00  4.2795825306423305e+00  4.2136088441890935e+00  4.1472465332411970e+00  4.0805777236129979e+00  4.0136894387395436e+00  3.9466734037087337e+00  3.8796257820980919e+00  3.8126468412194270e+00  3.7458405422832945e+00  3.6793140531771233e+00  3.6131771830160742e+00  3.5475417393716429e+00  3.4825208110915686e+00  3.4182279818593426e+00  3.3547764820453834e+00  3.2922782888967