<?xml version="1.0"?>
<VTKFile type="UnstructuredGrid"  version="0.1"  >
<UnstructuredGrid>
<Piece  NumberOfPoints="1001" NumberOfCells="1000">
<Points>
<DataArray  type="Float64"  NumberOfComponents="3"  format="ascii">0 0 0  0.001 0 0  0.002 0 0  0.003 0 0  0.004 0 0  0.005 0 0  0.006 0 0  0.007 0 0  0.008 0 0  0.008999999999999999 0 0  0.01 0 0  0.011 0 0  0.012 0 0  0.013 0 0  0.014 0 0  0.015 0 0  0.016 0 0  0.017 0 0  0.018 0 0  0.019 0 0  0.02 0 0  0.021 0 0  0.022 0 0  0.023 0 0  0.024 0 0  0.025 0 0  0.026 0 0  0.027 0 0  0.028 0 0  0.029 0 0  0.03 0 0  0.031 0 0  0.032 0 0  0.033 0 0  0.034 0 0  0.035 0 0  0.036 0 0  0.037 0 0  0.038 0 0  0.039 0 0  0.04 0 0  0.041 0 0  0.042 0 0  0.043 0 0  0.044 0 0  0.045 0 0  0.046 0 0  0.047 0 0  0.048 0 0  0.049 0 0  0.05 0 0  0.051 0 0  0.052 0 0  0.053 0 0  0.054 0 0  0.055 0 0  0.056 0 0  0.057 0 0  0.058 0 0  0.059 0 0  0.06 0 0  0.061 0 0  0.062 0 0  0.063 0 0  0.064 0 0  0.065 0 0  0.066 0 0  0.067 0 0  0.068 0 0  0.06900000000000001 0 0  0.07000000000000001 0 0  0.07099999999999999 0 0  0.07199999999999999 0 0  0.073 0 0  0.074 0 0  0.075 0 0  0.076 0 0  0.077 0 0  0.078 0 0  0.079 0 0  0.08 0 0  0.081 0 0  0.082 0 0  0.083 0 0  0.08400000000000001 0 0  0.08500000000000001 0 0  0.08599999999999999 0 0  0.08699999999999999 0 0  0.08799999999999999 0 0  0.089 0 0  0.09 0 0  0.091 0 0  0.092 0 0  0.093 0 0  0.094 0 0  0.095 0 0  0.096 0 0  0.097 0 0  0.098 0 0  0.099 0 0  0.1 0 0  0.101 0 0  0.102 0 0  0.103 0 0  0.104 0 0  0.105 0 0  0.106 0 0  0.107 0 0  0.108 0 0  0.109 0 0  0.11 0 0  0.111 0 0  0.112 0 0  0.113 0 0  0.114 0 0  0.115 0 0  0.116 0 0  0.117 0 0  0.118 0 0  0.119 0 0  0.12 0 0  0.121 0 0  0.122 0 0  0.123 0 0  0.124 0 0  0.125 0 0  0.126 0 0  0.127 0 0  0.128 0 0  0.129 0 0  0.13 0 0  0.131 0 0  0.132 0 0  0.133 0 0  0.134 0 0  0.135 0 0  0.136 0 0  0.137 0 0  0.138 0 0  0.139 0 0  0.14 0 0  0.141 0 0  0.142 0 0  0.143 0 0  0.144 0 0  0.145 0 0  0.146 0 0  0.147 0 0  0.148 0 0  0.149 0 0  0.15 0 0  0.151 0 0  0.152 0 0  0.153 0 0  0.154 0 0  0.155 0 0  0.156 0 0  0.157 0 0  0.158 0 0  0.159 0 0  0.16 0 0  0.161 0 0  0.162 0 0  0.163 0 0  0.164 0 0  0.165 0 0  0.166 0 0  0.167 0 0  0.168 0 0  0.169 0 0  0.17 0 0  0.171 0 0  0.172 0 0  0.173 0 0  0.174 0 0  0.175 0 0  0.176 0 0  0.177 0 0  0.178 0 0  0.179 0 0  0.18 0 0  0.181 0 0  0.182 0 0  0.183 0 0  0.184 0 0  0.185 0 0  0.186 0 0  0.187 0 0  0.188 0 0  0.189 0 0  0.19 0 0  0.191 0 0  0.192 0 0  0.193 0 0  0.194 0 0  0.195 0 0  0.196 0 0  0.197 0 0  0.198 0 0  0.199 0 0  0.2 0 0  0.201 0 0  0.202 0 0  0.203 0 0  0.204 0 0  0.205 0 0  0.206 0 0  0.207 0 0  0.208 0 0  0.209 0 0  0.21 0 0  0.211 0 0  0.212 0 0  0.213 0 0  0.214 0 0  0.215 0 0  0.216 0 0  0.217 0 0  0.218 0 0  0.219 0 0  0.22 0 0  0.221 0 0  0.222 0 0  0.223 0 0  0.224 0 0  0.225 0 0  0.226 0 0  0.227 0 0  0.228 0 0  0.229 0 0  0.23 0 0  0.231 0 0  0.232 0 0  0.233 0 0  0.234 0 0  0.235 0 0  0.236 0 0  0.237 0 0  0.238 0 0  0.239 0 0  0.24 0 0  0.241 0 0  0.242 0 0  0.243 0 0  0.244 0 0  0.245 0 0  0.246 0 0  0.247 0 0  0.248 0 0  0.249 0 0  0.25 0 0  0.251 0 0  0.252 0 0  0.253 0 0  0.254 0 0  0.255 0 0  0.256 0 0  0.257 0 0  0.258 0 0  0.259 0 0  0.26 0 0  0.261 0 0  0.262 0 0  0.263 0 0  0.264 0 0  0.265 0 0  0.266 0 0  0.267 0 0  0.268 0 0  0.269 0 0  0.27 0 0  0.271 0 0  0.272 0 0  0.273 0 0  0.274 0 0  0.275 0 0  0.276 0 0  0.277 0 0  0.278 0 0  0.279 0 0  0.28 0 0  0.281 0 0  0.282 0 0  0.283 0 0  0.284 0 0  0.285 0 0  0.286 0 0  0.287 0 0  0.288 0 0  0.289 0 0  0.29 0 0  0.291 0 0  0.292 0 0  0.293 0 0  0.294 0 0  0.295 0 0  0.296 0 0  0.297 0 0  0.298 0 0  0.299 0 0  0.3 0 0  0.301 0 0  0.302 0 0  0.303 0 0  0.304 0 0  0.305 0 0  0.306 0 0  0.307 0 0  0.308 0 0  0.309 0 0  0.31 0 0  0.311 0 0  0.312 0 0  0.313 0 0  0.314 0 0  0.315 0 0  0.316 0 0  0.317 0 0  0.318 0 0  0.319 0 0  0.32 0 0  0.321 0 0  0.322 0 0  0.323 0 0  0.324 0 0  0.325 0 0  0.326 0 0  0.327 0 0  0.328 0 0  0.329 0 0  0.33 0 0  0.331 0 0  0.332 0 0  0.333 0 0  0.334 0 0  0.335 0 0  0.336 0 0  0.337 0 0  0.338 0 0  0.339 0 0  0.34 0 0  0.341 0 0  0.342 0 0  0.343 0 0  0.344 0 0  0.345 0 0  0.346 0 0  0.347 0 0  0.348 0 0  0.349 0 0  0.35 0 0  0.351 0 0  0.352 0 0  0.353 0 0  0.354 0 0  0.355 0 0  0.356 0 0  0.357 0 0  0.358 0 0  0.359 0 0  0.36 0 0  0.361 0 0  0.362 0 0  0.363 0 0  0.364 0 0  0.365 0 0  0.366 0 0  0.367 0 0  0.368 0 0  0.369 0 0  0.37 0 0  0.371 0 0  0.372 0 0  0.373 0 0  0.374 0 0  0.375 0 0  0.376 0 0  0.377 0 0  0.378 0 0  0.379 0 0  0.38 0 0  0.381 0 0  0.382 0 0  0.383 0 0  0.384 0 0  0.385 0 0  0.386 0 0  0.387 0 0  0.388 0 0  0.389 0 0  0.39 0 0  0.391 0 0  0.392 0 0  0.393 0 0  0.394 0 0  0.395 0 0  0.396 0 0  0.397 0 0  0.398 0 0  0.399 0 0  0.4 0 0  0.401 0 0  0.402 0 0  0.403 0 0  0.404 0 0  0.405 0 0  0.406 0 0  0.407 0 0  0.408 0 0  0.409 0 0  0.41 0 0  0.411 0 0  0.412 0 0  0.413 0 0  0.414 0 0  0.415 0 0  0.416 0 0  0.417 0 0  0.418 0 0  0.419 0 0  0.42 0 0  0.421 0 0  0.422 0 0  0.423 0 0  0.424 0 0  0.425 0 0  0.426 0 0  0.427 0 0  0.428 0 0  0.429 0 0  0.43 0 0  0.431 0 0  0.432 0 0  0.433 0 0  0.434 0 0  0.435 0 0  0.436 0 0  0.437 0 0  0.438 0 0  0.439 0 0  0.44 0 0  0.441 0 0  0.442 0 0  0.443 0 0  0.444 0 0  0.445 0 0  0.446 0 0  0.447 0 0  0.448 0 0  0.449 0 0  0.45 0 0  0.451 0 0  0.452 0 0  0.453 0 0  0.454 0 0  0.455 0 0  0.456 0 0  0.457 0 0  0.458 0 0  0.459 0 0  0.46 0 0  0.461 0 0  0.462 0 0  0.463 0 0  0.464 0 0  0.465 0 0  0.466 0 0  0.467 0 0  0.468 0 0  0.469 0 0  0.47 0 0  0.471 0 0  0.472 0 0  0.473 0 0  0.474 0 0  0.475 0 0  0.476 0 0  0.477 0 0  0.478 0 0  0.479 0 0  0.48 0 0  0.481 0 0  0.482 0 0  0.483 0 0  0.484 0 0  0.485 0 0  0.486 0 0  0.487 0 0  0.488 0 0  0.489 0 0  0.49 0 0  0.491 0 0  0.492 0 0  0.493 0 0  0.494 0 0  0.495 0 0  0.496 0 0  0.497 0 0  0.498 0 0  0.499 0 0  0.5 0 0  0.501 0 0  0.502 0 0  0.503 0 0  0.504 0 0  0.505 0 0  0.506 0 0  0.507 0 0  0.508 0 0  0.509 0 0  0.51 0 0  0.511 0 0  0.512 0 0  0.513 0 0  0.514 0 0  0.515 0 0  0.516 0 0  0.517 0 0  0.518 0 0  0.519 0 0  0.52 0 0  0.521 0 0  0.522 0 0  0.523 0 0  0.524 0 0  0.525 0 0  0.526 0 0  0.527 0 0  0.528 0 0  0.529 0 0  0.53 0 0  0.531 0 0  0.532 0 0  0.533 0 0  0.534 0 0  0.535 0 0  0.536 0 0  0.537 0 0  0.538 0 0  0.539 0 0  0.54 0 0  0.541 0 0  0.542 0 0  0.543 0 0  0.544 0 0  0.545 0 0  0.546 0 0  0.547 0 0  0.548 0 0  0.549 0 0  0.55 0 0  0.551 0 0  0.552 0 0  0.553 0 0  0.554 0 0  0.555 0 0  0.556 0 0  0.5570000000000001 0 0  0.5580000000000001 0 0  0.5590000000000001 0 0  0.5600000000000001 0 0  0.5610000000000001 0 0  0.5620000000000001 0 0  0.5629999999999999 0 0  0.5639999999999999 0 0  0.5649999999999999 0 0  0.5659999999999999 0 0  0.5669999999999999 0 0  0.5679999999999999 0 0  0.569 0 0  0.57 0 0  0.571 0 0  0.572 0 0  0.573 0 0  0.574 0 0  0.575 0 0  0.576 0 0  0.577 0 0  0.578 0 0  0.579 0 0  0.58 0 0  0.581 0 0  0.582 0 0  0.583 0 0  0.584 0 0  0.585 0 0  0.586 0 0  0.587 0 0  0.588 0 0  0.589 0 0  0.59 0 0  0.591 0 0  0.592 0 0  0.593 0 0  0.594 0 0  0.595 0 0  0.596 0 0  0.597 0 0  0.598 0 0  0.599 0 0  0.6 0 0  0.601 0 0  0.602 0 0  0.603 0 0  0.604 0 0  0.605 0 0  0.606 0 0  0.607 0 0  0.608 0 0  0.609 0 0  0.61 0 0  0.611 0 0  0.612 0 0  0.613 0 0  0.614 0 0  0.615 0 0  0.616 0 0  0.617 0 0  0.618 0 0  0.619 0 0  0.62 0 0  0.621 0 0  0.622 0 0  0.623 0 0  0.624 0 0  0.625 0 0  0.626 0 0  0.627 0 0  0.628 0 0  0.629 0 0  0.63 0 0  0.631 0 0  0.632 0 0  0.633 0 0  0.634 0 0  0.635 0 0  0.636 0 0  0.637 0 0  0.638 0 0  0.639 0 0  0.64 0 0  0.641 0 0  0.642 0 0  0.643 0 0  0.644 0 0  0.645 0 0  0.646 0 0  0.647 0 0  0.648 0 0  0.649 0 0  0.65 0 0  0.651 0 0  0.652 0 0  0.653 0 0  0.654 0 0  0.655 0 0  0.656 0 0  0.657 0 0  0.658 0 0  0.659 0 0  0.66 0 0  0.661 0 0  0.662 0 0  0.663 0 0  0.664 0 0  0.665 0 0  0.666 0 0  0.667 0 0  0.668 0 0  0.669 0 0  0.67 0 0  0.671 0 0  0.672 0 0  0.673 0 0  0.674 0 0  0.675 0 0  0.676 0 0  0.677 0 0  0.678 0 0  0.679 0 0  0.68 0 0  0.681 0 0  0.6820000000000001 0 0  0.6830000000000001 0 0  0.6840000000000001 0 0  0.6850000000000001 0 0  0.6860000000000001 0 0  0.6870000000000001 0 0  0.6879999999999999 0 0  0.6889999999999999 0 0  0.6899999999999999 0 0  0.6909999999999999 0 0  0.6919999999999999 0 0  0.6929999999999999 0 0  0.694 0 0  0.695 0 0  0.696 0 0  0.697 0 0  0.698 0 0  0.699 0 0  0.7 0 0  0.701 0 0  0.702 0 0  0.703 0 0  0.704 0 0  0.705 0 0  0.706 0 0  0.707 0 0  0.708 0 0  0.709 0 0  0.71 0 0  0.711 0 0  0.712 0 0  0.713 0 0  0.714 0 0  0.715 0 0  0.716 0 0  0.717 0 0  0.718 0 0  0.719 0 0  0.72 0 0  0.721 0 0  0.722 0 0  0.723 0 0  0.724 0 0  0.725 0 0  0.726 0 0  0.727 0 0  0.728 0 0  0.729 0 0  0.73 0 0  0.731 0 0  0.732 0 0  0.733 0 0  0.734 0 0  0.735 0 0  0.736 0 0  0.737 0 0  0.738 0 0  0.739 0 0  0.74 0 0  0.741 0 0  0.742 0 0  0.743 0 0  0.744 0 0  0.745 0 0  0.746 0 0  0.747 0 0  0.748 0 0  0.749 0 0  0.75 0 0  0.751 0 0  0.752 0 0  0.753 0 0  0.754 0 0  0.755 0 0  0.756 0 0  0.757 0 0  0.758 0 0  0.759 0 0  0.76 0 0  0.761 0 0  0.762 0 0  0.763 0 0  0.764 0 0  0.765 0 0  0.766 0 0  0.767 0 0  0.768 0 0  0.769 0 0  0.77 0 0  0.771 0 0  0.772 0 0  0.773 0 0  0.774 0 0  0.775 0 0  0.776 0 0  0.777 0 0  0.778 0 0  0.779 0 0  0.78 0 0  0.781 0 0  0.782 0 0  0.783 0 0  0.784 0 0  0.785 0 0  0.786 0 0  0.787 0 0  0.788 0 0  0.789 0 0  0.79 0 0  0.791 0 0  0.792 0 0  0.793 0 0  0.794 0 0  0.795 0 0  0.796 0 0  0.797 0 0  0.798 0 0  0.799 0 0  0.8 0 0  0.801 0 0  0.802 0 0  0.803 0 0  0.804 0 0  0.805 0 0  0.806 0 0  0.8070000000000001 0 0  0.8080000000000001 0 0  0.8090000000000001 0 0  0.8100000000000001 0 0  0.8110000000000001 0 0  0.8120000000000001 0 0  0.8129999999999999 0 0  0.8139999999999999 0 0  0.8149999999999999 0 0  0.8159999999999999 0 0  0.8169999999999999 0 0  0.8179999999999999 0 0  0.819 0 0  0.82 0 0  0.821 0 0  0.822 0 0  0.823 0 0  0.824 0 0  0.825 0 0  0.826 0 0  0.827 0 0  0.828 0 0  0.829 0 0  0.83 0 0  0.831 0 0  0.832 0 0  0.833 0 0  0.834 0 0  0.835 0 0  0.836 0 0  0.837 0 0  0.838 0 0  0.839 0 0  0.84 0 0  0.841 0 0  0
[...]
<PointData  Scalars="f_20-0"> 
<DataArray  type="Float64"  Name="f_20-0"  format="ascii">2.0001003061872709e+00  2.0001009822653177e+00  2.0001030188292996e+00  2.0001064409606490e+00  2.0001112907689933e+00  2.0001176278560799e+00  2.0001255299714331e+00  2.0001350938659384e+00  2.0001464363514416e+00  2.0001596955763055e+00  2.0001750325289218e+00  2.0001926327831652e+00  2.0002127085020409e+00  2.0002355007179649e+00  2.0002612819106127e+00  2.0002903589057834e+00  2.0003230761214481e+00  2.0003598191900620e+00  2.0004010189892885e+00  2.0004471561165427e+00  2.0004987658463036e+00  2.0005564436128642e+00  2.0006208510651504e+00  2.0006927227445330e+00  2.0007728734410448e+00  2.0008622062882240e+00  2.0009617216619326e+00  2.0010725269538820e+00  2.0011958472963287e+00  2.0013330373204061e+00  2.0014855940368950e+00  2.0016551709348263e+00  2.0018435934002219e+00  2.0020528755643503e+00  2.0022852386982470e+00  2.0025431312777018e+00  2.0028292508504513e+00  2.0031465678448908e+00  2.0034983514670146e+00  2.0038881978394665e+00  2.0043200605433231e+00  2.0047982837293135e+00  2.0053276379704204e+00  2.0059133590318021e+00  2.0065611897364843e+00  2.0072774251057997e+00  2.0080689609515878e+00  2.0089433460922370e+00  2.0099088383559378e+00  2.0109744645213525e+00  2.0121500843273550e+00  2.0134464586585494e+00  2.0148753219807780e+00  2.0164494590595146e+00  2.0181827859424732e+00  2.0200904351243358e+00  2.0221888447346306e+00  2.0244958514975142e+00  2.0270307871027584e+00  2.0298145774986112e+00  2.0328698444675304e+00  2.0362210086731825e+00  2.0398943931701332e+00  2.0439183261449512e+00  2.0483232414084540e+00  2.0531417748835987e+00  2.0584088550332424e+00  2.0641617848491203e+00  2.0704403126820954e+00  2.0772866888402923e+00  2.0847457045248383e+00  2.0928647093240280e+00  2.1016936031606757e+00  2.1112847983022363e+00  2.1216931468206459e+00  2.1329758287539695e+00  2.1451921962028520e+00  2.1584035687220489e+00  2.1726729756724850e+00  2.1880648417132322e+00  2.2046446123638352e+00  2.2224783175779734e+00  2.2416320725535175e+00  2.2621715165633312e+00  2.2841611924118954e+00  2.3076638711725375e+00  2.3327398290854990e+00  2.3594460858228254e+00  2.3878356156557219e+00  2.4179565452785421e+00  2.4498513540225022e+00  2.4835560937974570e+00  2.5190996472008020e+00  2.5565030427125923e+00  2.5957788456643303e+00  2.6369306426710226e+00  2.6799526354411722e+00  2.7248293573662736e+00  2.7715355231286347e+00  2.8200360178889392e+00  2.8702860285953817e+00  2.9222313157924553e+00  2.9758086202080865e+00  3.0309461945655913e+00  3.0875644476844717e+00  3.1455766851496416e+00  3.2048899287481545e+00  3.2654057955532299e+00  3.3270214169864305e+00  3.3896303783742043e+00  3.4531236603608839e+00  3.5173905649442507e+00  3.5823196107411861e+00  3.6477993842413374e+00  3.7137193361388352e+00  3.7799705142282254e+00  3.8464462267074908e+00  3.9130426319638261e+00  3.9796592529618477e+00  4.0461994161643284e+00  4.1125706164660505e+00  4.1786848109017818e+00  4.2444586449030339e+00  4.3098136156386806e+00  4.3746761775030123e+00  4.4389777951372071e+00  4.5026549495148318e+00  4.5656491026182637e+00  4.6279066261088531e+00  4.6893786991757223e+00  4.7500211804605463e+00  4.8097944586191339e+00  4.8686632857136232e+00  4.9265965972462560e+00  4.9835673222595291e+00  5.0395521865475397e+00  5.0945315116567302e+00  5.1484890120066824e+00  5.2014115921363162e+00  5.2532891457804558e+00  5.3041143582070509e+00  5.3538825129969529e+00  5.4025913042251759e+00  5.4502406548046025e+00  5.4968325415783506e+00  5.5423708275943016e+00  5.5868611018627750e+00  5.6303105267843936e+00  5.6727276933379658e+00  5.7141224840361593e+00  5.7545059435881809e+00  5.7938901571519912e+00  5.8322881360125667e+00  5.8697137104857733e+00  5.9061814298186430e+00  5.9417064688348624e+00  5.9763045410583873e+00  6.0099918180371947e+00  6.0427848545825844e+00  6.0747005196365960e+00  6.1057559324800783e+00  6.1359684039966078e+00  6.1653553827119811e+00  6.1939344053352663e+00  6.2217230515349584e+00  6.2487389026922351e+00  6.2749995043826292e+00  6.3005223323471817e+00  6.3253247617243531e+00  6.3494240393242238e+00  6.3728372587370048e+00  6.3955813380782418e+00  6.4176730001833331e+00  6.4391287550741492e+00  6.4599648845302777e+00  6.4801974286070960e+00  6.4998421739520333e+00  6.5189146437793770e+00  6.5374300893724469e+00  6.5554034829902577e+00  6.5728495120635371e+00  6.5897825745724559e+00  6.6062167755054988e+00  6.6221659243056630e+00  6.6376435332164432e+00  6.6526628164462345e+00  6.6672366900752777e+00  6.6813777726348000e+00  6.6950983862929254e+00  6.7084105585867215e+00  6.7213260246442257e+00  6.7338562298443989e+00  6.7460123328669424e+00  6.7578052090875484e+00  6.7692454542776028e+00  6.7803433885705298e+00  6.7911090606600313e+00  6.8015522521981957e+00  6.8116824823641355e+00  6.8215090125761586e+00  6.8310408513228271e+00  6.8402867590902998e+00  6.8492552533653530e+00  6.8579546136952620e+00  6.8663928867874464e+00  6.8745778916333258e+00  6.8825172246423012e+00  6.8902182647731083e+00  6.8976881786510571e+00  6.9049339256607958e+00  6.9119622630053339e+00  6.9187797507230400e+00  6.9253927566551923e+00  6.9318074613575638e+00  6.9380298629502546e+00  6.9440657819007079e+00  6.9499208657354812e+00  6.9556005936769676e+00  6.9611102812018038e+00  6.9664550845181896e+00  6.9716400049598404e+00  6.9766698932946580e+00  6.9815494539466521e+00  6.9862832491299578e+00  6.9908757028941215e+00  6.9953311050801137e+00  6.9996536151867970e+00  7.0038472661478046e+00  7.0079159680190273e+00  7.0118635115770180e+00  7.0156935718289297e+00  7.0194097114346237e+00  7.0230153840417877e+00  7.0265139375350456e+00  7.0299086172000802e+00  7.0332025688039330e+00  7.0363988415927539e+00  7.0395003912082483e+00  7.0425100825242275e+00  7.0454306924046826e+00  7.0482649123848251e+00  7.0510153512766109e+00  7.0536845377002697e+00  7.0562749225433787e+00  7.0587888813490682e+00  7.0612287166348962e+00  7.0635966601440359e+00  7.0658948750302768e+00  7.0681254579784989e+00  7.0702904412621441e+00  7.0723917947392678e+00  7.0744314277887250e+00  7.0764111911880345e+00  7.0783328789344253e+00  7.0801982300105859e+00  7.0820089300966051e+00  7.0837666132295380e+00  7.0854728634120656e+00  7.0871292161716548e+00  7.0887371600715836e+00  7.0902981381752470e+00  7.0918135494649883e+00  7.0932847502168945e+00  7.0947130553327069e+00  7.0960997396301773e+00  7.0974460390930814e+00  7.0987531520820646e+00  7.1000222405075153e+00  7.1012544309655823e+00  7.1024508158384556e+00  7.1036124543600305e+00  7.1047403736479184e+00  7.1058355697029514e+00  7.1068990083770824e+00  7.1079316263107106e+00  7.1089343318403788e+00  7.1099080058777124e+00  7.1108535027605795e+00  7.1117716510772482e+00  7.1126632544644881e+00  7.1135290923803449e+00  7.1143699208524396e+00  7.1151864732025620e+00  7.1159794607482851e+00  7.1167495734823607e+00  7.1174974807305817e+00  7.1182238317888018e+00  7.1189292565397828e+00  7.1196143660505093e+00  7.1202797531506157e+00  7.1209259929924729e+00  7.1215536435936109e+00  7.1221632463619571e+00  7.1227553266045174e+00  7.1233303940199715e+00  7.1238889431757340e+00  7.1244314539699722e+00  7.1249583920790842e+00  7.1254702093910600e+00  7.1259673444252218e+00  7.1264502227387867e+00  7.1269192573206306e+00  7.1273748489727193e+00  7.1278173866795544e+00  7.1282472479660823e+00  7.1286647992443752e+00  7.1290703961494772e+00  7.1294643838647769e+00  7.1298470974372110e+00  7.1302188620826383e+00  7.1305799934817360e+00  7.1309307980666512e+00  7.1312715732987790e+00  7.1316026079379107e+00  7.1319241823030177e+00  7.1322365685249913e+00  7.1325400307915423e+00  7.1328348255845411e+00  7.1331212019100327e+00  7.1333994015211619e+00  7.1336696591342310e+00  7.1339322026381238e+00  7.1341872532972701e+00  7.1344350259484104e+00  7.1346757291913292e+00  7.1349095655737171e+00  7.1351367317704293e+00  7.1353574187572288e+00  7.1355718119792479e+00  7.1357800915143281e+00  7.1359824322313568e+00  7.1361790039438269e+00  7.1363699715587208e+00  7.1365554952208603e+00  7.1367357304529371e+00  7.1369108282912386e+00  7.1370809354173250e+00  7.1372461942857095e+00  7.1374067432477020e+00  7.1375627166715070e+00  7.1377142450587225e+00  7.1378614551573420e+00  7.1380044700713468e+00  7.1381434093670357e+00  7.1382783891761559e+00  7.1384095222959534e+00  7.1385369182862481e+00  7.1386606835635709e+00  7.1387809214925619e+00  7.1388977324745762e+00  7.1390112140337063e+00  7.1391214609002072e+00  7.1392285650914902e+00  7.1393326159906829e+00  7.1394337004228605e+00  7.1395319027290469e+00  7.1396273048380028e+00  7.1397199863359031e+00  7.1398100245339702e+00  7.1398974945340914e+00  7.1399824692925238e+00  7.1400650196817113e+00  7.1401452145502917e+00  7.1402231207813536e+00  7.1402988033489621e+00  7.1403723253730336e+00  7.1404437481726291e+00  7.1405131313176327e+00  7.1405805326789977e+00  7.1406460084774546e+00  7.1407096133308423e+00  7.1407714003000287e+00  7.1408314209335275e+00  7.1408897253107879e+00  7.1409463620842386e+00  7.1410013785201132e+00  7.1410548205380753e+00  7.1411067327497211e+00  7.1411571584959415e+00  7.1412061398832165e+00  7.1412537178188433e+00  7.1412999320451691e+00  7.1413448211728268e+00  7.1413884227129882e+00  7.1414307731087288e+00  7.1414719077654558e+00  7.1415118610804802e+00  7.1415506664717014e+00  7.1415883564055376e+00  7.1416249624239754e+00  7.1416605151708836e+00  7.1416950444175811e+00  7.1417285790876361e+00  7.1417611472809845e+00  7.1417927762973470e+00  7.1418234926589781e+00  7.1418533221327465e+00  7.1418822897516261e+00  7.1419104198355230e+00  7.1419377360115472e+00  7.1419642612336727e+00  7.1419900178018771e+00  7.1420150273806851e+00  7.1420393110172276e+00  7.1420628891587619e+00  7.1420857816696932e+00  7.1421080078481314e+00  7.1421295864419392e+00  7.1421505356643671e+00  7.1421708732092029e+00  7.1421906162655189e+00  7.1422097815319869e+00  7.1422283852307791e+00  7.1422464431210875e+00  7.1422639705122455e+00  7.1422809822764872e+00  7.1422974928613234e+00  7.1423135163015843e+00  7.1423290662311105e+00  7.1423441558941070e+00  7.1423587981561703e+00  7.1423730055150090e+00  7.1423867901108471e+00  7.1424001637365286e+00  7.1424131378473366e+00  7.1424257235705175e+00  7.1424379317145501e+00  7.1424497727781269e+00  7.1424612569588701e+00  7.1424723941618149e+00  7.1424831940076245e+00  7.1424936658405596e+00  7.1425038187362455e+00  7.1425136615091640e+00  7.1425232027199472e+00  7.1425324506824497e+00  7.1425414134705996e+00  7.1425500989250477e+00  7.1425585146596138e+00  7.1425666680675191e+00  7.1425745663274434e+00  7.1425822164093846e+00  7.1425896250803289e+00  7.1425967989097421e+00  7.1426037442748864e+00  7.1426104673659561e+00  7.1426169741910543e+00  7.1426232705809936e+00  7.1426293621939347e+00  7.1426352545198810e+00  7.1426409528849915e+00  7.1426464624557671e+00  7.1426517882430733e+00  7.1426569351060252e+00  7.1426619077557270e+00  7.1426667107588653e+00  7.1426713485411817e+00  7.1426758253908096e+00  7.1426801454614681e+00  7.1426843127755406e+00  7.1426883312270402e+00  7.1426922045844305e+00  7.1426959364933484e+00  7.1426995304792129e+00  7.1427029899497132e+00  7.1427063181971926e+00  7.1427095184009346e+00  7.1427125936293372e+00  7.1427155468419903e+00  7.1427183808916732e+00  7.1427210985262271e+00  7.1427237023903718e+00  7.1427261950274117e+00  7.1427285788808721e+00  7.1427308562960317e+00  7.1427330295214153e+00  7.1427351007101576e+00  7.1427370719213403e+00  7.1427389451212298e+00  7.1427407221844526e+00  7.1427424048951096e+00  7.1427439949478186e+00  7.1427454939486923e+00  7.1427469034162661e+00  7.1427482247823519e+00  7.1427494593928502e+00  7.1427506085084973e+00  7.1427516733055549e+00  7.1427526548764684e+00  7.1427535542304490e+00  7.1427543722940197e+00  7.1427551099115156e+00  7.1427557678455287e+00  7.1427563467773165e+00  7.1427568473071537e+00  7.1427572699546475e+00  7.1427576151590175e+00  7.1427578832793071e+00  7.1427580745945916e+00  7.1427581893040966e+00  7.1427582275273247e+00  7.1427581893040966e+00  7.1427580745945916e+00  7.1427578832793106e+00  7.1427576151590202e+00  7.1427572699546511e+00  7.1427568473071554e+00  7.1427563467773192e+00  7.1427557678455313e+00  7.1427551099115156e+00  7.1427543722940179e+00  7.1427535542304481e+00  7.1427526548764675e+00  7.1427516733055514e+00  7.1427506085084946e+00  7.1427494593928511e+00  7.1427482247823511e+00  7.1427469034162643e+00  7.1427454939486870e+00  7.1427439949478133e+00  7.1427424048951043e+00  7.1427407221844481e+00  7.1427389451212262e+00  7.1427370719213394e+00  7.1427351007101576e+00  7.1427330295214153e+00  7.1427308562960325e+00  7.1427285788808694e+00  7.1427261950274090e+00  7.1427237023903674e+00  7.1427210985262226e+00  7.1427183808916688e+00  7.1427155468419885e+00  7.1427125936293354e+00  7.1427095184009346e+00  7.1427063181971935e+00  7.1427029899497132e+00  7.1426995304792120e+00  7.1426959364933458e+00  7.1426922045844279e+00  7.1426883312270393e+00  7.1426843127755406e+00  7.1426801454614655e+00  7.1426758253908069e+00  7.1426713485411799e+00  7.1426667107588617e+00  7.1426619077557225e+00  7.1426569351060225e+00  7.1426517882430707e+00  7.1426464624557617e+00  7.1426409528849879e+00  7.1426352545198784e+00  7.1426293621939339e+00  7.1426232705809909e+00  7.1426169741910526e+00  7.1426104673659534e+00  7.1426037442748855e+00  7.1425967989097394e+00  7.1425896250803254e+00  7.1425822164093811e+00  7.1425745663274389e+00  7.1425666680675164e+00  7.1425585146596120e+00  7.1425500989250459e+00  7.1425414134705942e+00  7.1425324506824444e+00  7.1425232027199419e+00  7.1425136615091613e+00  7.1425038187362420e+00  7.1424936658405569e+00  7.1424831940076192e+00  7.1424723941618105e+00  7.1424612569588666e+00  7.1424497727781215e+00  7.1424379317145466e+00  7.1424257235705104e+00  7.1424131378473312e+00  7.1424001637365251e+00  7.1423867901108453e+00  7.1423730055150090e+00  7.1423587981561703e+00  7.1423441558941061e+00  7.1423290662311114e+00  7.1423135163015852e+00  7.1422974928613252e+00  7.1422809822764881e+00  7.1422639705122482e+00  7.1422464431210884e+00  7.1422283852307782e+00  7.1422097815319869e+00  7.1421906162655198e+00  7.1421708732092029e+00  7.1421505356643671e+00  7.1421295864419401e+00  7.1421080078481323e+00  7.1420857816696959e+00  7.1420628891587636e+00  7.1420393110172320e+00  7.1420150273806886e+00  7.1419900178018780e+00  7.1419642612336727e+00  7.1419377360115464e+00  7.1419104198355230e+00  7.1418822897516270e+00  7.1418533221327483e+00  7.1418234926589772e+00  7.1417927762973470e+00  7.1417611472809854e+00  7.1417285790876370e+00  7.1416950444175820e+00  7.1416605151708827e+00  7.1416249624239718e+00  7.1415883564055349e+00  7.1415506664716997e+00  7.1415118610804775e+00  7.1414719077654549e+00  7.1414307731087279e+00  7.1413884227129891e+00  7.1413448211728268e+00  7.1412999320451744e+00  7.1412537178188478e+00  7.1412061398832218e+00  7.1411571584959441e+00  7.1411067327497246e+00  7.1410548205380753e+00  7.1410013785201132e+00  7.1409463620842386e+00  7.1408897253107870e+00  7.1408314209335284e+00  7.1407714003000313e+00  7.1407096133308432e+00  7.1406460084774572e+00  7.1405805326789986e+00  7.1405131313176335e+00  7.1404437481726282e+00  7.1403723253730380e+00  7.1402988033489638e+00  7.1402231207813553e+00  7.1401452145502917e+00  7.1400650196817113e+00  7.1399824692925247e+00  7.1398974945340941e+00  7.1398100245339728e+00  7.1397199863359049e+00  7.1396273048380019e+00  7.1395319027290469e+00  7.1394337004228596e+00  7.1393326159906811e+00  7.1392285650914884e+00  7.1391214609002045e+00  7.1390112140337054e+00  7.1388977324745779e+00  7.1387809214925655e+00  7.1386606835635744e+00  7.1385369182862490e+00  7.1384095222959525e+00  7.1382783891761541e+00  7.1381434093670348e+00  7.1380044700713468e+00  7.1378614551573438e+00  7.1377142450587234e+00  7.1375627166715088e+00  7.1374067432477046e+00  7.1372461942857113e+00  7.1370809354173277e+00  7.1369108282912403e+00  7.1367357304529380e+00  7.1365554952208594e+00  7.1363699715587146e+00  7.1361790039438215e+00  7.1359824322313505e+00  7.1357800915143228e+00  7.1355718119792453e+00  7.1353574187572297e+00  7.1351367317704328e+00  7.1349095655737171e+00  7.1346757291913283e+00  7.1344350259484095e+00  7.1341872532972657e+00  7.1339322026381229e+00  7.1336696591342319e+00  7.1333994015211619e+00  7.1331212019100318e+00  7.1328348255845393e+00  7.1325400307915414e+00  7.1322365685249913e+00  7.1319241823030177e+00  7.1316026079379098e+00  7.1312715732987790e+00  7.1309307980666485e+00  7.1305799934817342e+00  7.1302188620826383e+00  7.1298470974372110e+00  7.1294643838647778e+00  7.1290703961494790e+00  7.1286647992443779e+00  7.1282472479660850e+00  7.1278173866795580e+00  7.1273748489727264e+00  7.1269192573206386e+00  7.1264502227387920e+00  7.1259673444252245e+00  7.1254702093910600e+00  7.1249583920790851e+00  7.1244314539699714e+00  7.1238889431757340e+00  7.1233303940199741e+00  7.1227553266045165e+00  7.1221632463619571e+00  7.1215536435936118e+00  7.1209259929924720e+00  7.1202797531506157e+00  7.1196143660505093e+00  7.1189292565397828e+00  7.1182238317888018e+00  7.1174974807305817e+00  7.1167495734823607e+00  7.1159794607482851e+00  7.1151864732025620e+00  7.1143699208524405e+00  7.1135290923803467e+00  7.1126632544644890e+00  7.1117716510772500e+00  7.1108535027605795e+00  7.1099080058777124e+00  7.1089343318403779e+00  7.1079316263107097e+00  7.1068990083770798e+00  7.1058355697029514e+00  7.1047403736479184e+00  7.1036124543600287e+00  7.1024508158384538e+00  7.1012544309655761e+00  7.1000222405075117e+00  7.0987531520820610e+00  7.0974460390930778e+00  7.0960997396301746e+00  7.0947130553327060e+00  7.0932847502168954e+00  7.0918135494649865e+00  7.0902981381752417e+00  7.0887371600715836e+00  7.0871292161716504e+00  7.0854728634120647e+00  7.0837666132295354e+00  7.0820089300966078e+00  7.0801982300105877e+00  7.0783328789344253e+00  7.0764111911880345e+00  7.0744314277887250e+00  7.0723917947392678e+00  7.0702904412621441e+00  7.0681254579784989e+00  7.0658948750302804e+00  7.0635966601440394e+00  7.0612287166348988e+00  7.0587888813490682e+00  7.0562749225433805e+00  7.0536845377002715e+00  7.0510153512766118e+00  7.0482649123848269e+00  7.0454306924046843e+00  7.0425100825242293e+00  7.0395003912082483e+00  7.0363988415927530e+00  7.0332025688039312e+00  7.0299086172000784e+00  7.0265139375350465e+00  7.0230153840417868e+00  7.0194097114346228e+00  7.0156935718289288e+00  7.0118635115770154e+00  7.0079159680190255e+00  7.0038472661478037e+00  6.9996536151867979e+00  6.9953311050801137e+00  6.9908757028941224e+00  6.9862832491299578e+00  6.9815494539466529e+00  6.9766698932946598e+00  6.9716400049598430e+00  6.9664550845181923e+00  6.9611102812018055e+00  6.9556005936769685e+00  6.9499208657354812e+00  6.9440657819007097e+00  6.9380298629502546e+00  6.9318074613575620e+00  6.9253927566551923e+00  6.9187797507230409e+00  6.9119622630053339e+00  6.9049339256607976e+00  6.8976881786510607e+00  6.8902182647731109e+00  6.8825172246423039e+00  6.8745778916333258e+00  6.8663928867874473e+00  6.8579546136952629e+00  6.8492552533653566e+00  6.8402867590903025e+00  6.8310408513228280e+00  6.8215090125761604e+00  6.8116824823641355e+00  6.8015522521981975e+00  6.7911090606600348e+00  6.7803433885705360e+00  6.7692454542776082e+00  6.7578052090875538e+00  6.7460123328669441e+00  6.7338562298444025e+00  6.7213260246442275e+00  6.7084105585867224e+00  6.6950983862929263e+00  6.6813777726348027e+00  6.6672366900752804e+00  6.6526628164462362e+00  6.6376435332164441e+00  6.6221659243056621e+00  6.6062167755054997e+00  6.5897825745724559e+00  6.5728495120635397e+00  6.5554034829902594e+00  6.5374300893724486e+00  6.5189146437793797e+00  6.4998421739520378e+00  6.4801974286070960e+00  6.4599648845302822e+00  6.4391287550741545e+00  6.4176730001833375e+00  6.3955813380782