<?xml version="1.0"?>
<VTKFile type="UnstructuredGrid"  version="0.1"  >
<UnstructuredGrid>
<Piece  NumberOfPoints="1001" NumberOfCells="1000">
<Points>
<DataArray  type="Float64"  NumberOfComponents="3"  format="ascii">0 0 0  0.001 0 0  0.002 0 0  0.003 0 0  0.004 0 0  0.005 0 0  0.006 0 0  0.007 0 0  0.008 0 0  0.008999999999999999 0 0  0.01 0 0  0.011 0 0  0.012 0 0  0.013 0 0  0.014 0 0  0.015 0 0  0.016 0 0  0.017 0 0  0.018 0 0  0.019 0 0  0.02 0 0  0.021 0 0  0.022 0 0  0.023 0 0  0.024 0 0  0.025 0 0  0.026 0 0  0.027 0 0  0.028 0 0  0.029 0 0  0.03 0 0  0.031 0 0  0.032 0 0  0.033 0 0  0.034 0 0  0.035 0 0  0.036 0 0  0.037 0 0  0.038 0 0  0.039 0 0  0.04 0 0  0.041 0 0  0.042 0 0  0.043 0 0  0.044 0 0  0.045 0 0  0.046 0 0  0.047 0 0  0.048 0 0  0.049 0 0  0.05 0 0  0.051 0 0  0.052 0 0  0.053 0 0  0.054 0 0  0.055 0 0  0.056 0 0  0.057 0 0  0.058 0 0  0.059 0 0  0.06 0 0  0.061 0 0  0.062 0 0  0.063 0 0  0.064 0 0  0.065 0 0  0.066 0 0  0.067 0 0  0.068 0 0  0.06900000000000001 0 0  0.07000000000000001 0 0  0.07099999999999999 0 0  0.07199999999999999 0 0  0.073 0 0  0.074 0 0  0.075 0 0  0.076 0 0  0.077 0 0  0.078 0 0  0.079 0 0  0.08 0 0  0.081 0 0  0.082 0 0  0.083 0 0  0.08400000000000001 0 0  0.08500000000000001 0 0  0.08599999999999999 0 0  0.08699999999999999 0 0  0.08799999999999999 0 0  0.089 0 0  0.09 0 0  0.091 0 0  0.092 0 0  0.093 0 0  0.094 0 0  0.095 0 0  0.096 0 0  0.097 0 0  0.098 0 0  0.099 0 0  0.1 0 0  0.101 0 0  0.102 0 0  0.103 0 0  0.104 0 0  0.105 0 0  0.106 0 0  0.107 0 0  0.108 0 0  0.109 0 0  0.11 0 0  0.111 0 0  0.112 0 0  0.113 0 0  0.114 0 0  0.115 0 0  0.116 0 0  0.117 0 0  0.118 0 0  0.119 0 0  0.12 0 0  0.121 0 0  0.122 0 0  0.123 0 0  0.124 0 0  0.125 0 0  0.126 0 0  0.127 0 0  0.128 0 0  0.129 0 0  0.13 0 0  0.131 0 0  0.132 0 0  0.133 0 0  0.134 0 0  0.135 0 0  0.136 0 0  0.137 0 0  0.138 0 0  0.139 0 0  0.14 0 0  0.141 0 0  0.142 0 0  0.143 0 0  0.144 0 0  0.145 0 0  0.146 0 0  0.147 0 0  0.148 0 0  0.149 0 0  0.15 0 0  0.151 0 0  0.152 0 0  0.153 0 0  0.154 0 0  0.155 0 0  0.156 0 0  0.157 0 0  0.158 0 0  0.159 0 0  0.16 0 0  0.161 0 0  0.162 0 0  0.163 0 0  0.164 0 0  0.165 0 0  0.166 0 0  0.167 0 0  0.168 0 0  0.169 0 0  0.17 0 0  0.171 0 0  0.172 0 0  0.173 0 0  0.174 0 0  0.175 0 0  0.176 0 0  0.177 0 0  0.178 0 0  0.179 0 0  0.18 0 0  0.181 0 0  0.182 0 0  0.183 0 0  0.184 0 0  0.185 0 0  0.186 0 0  0.187 0 0  0.188 0 0  0.189 0 0  0.19 0 0  0.191 0 0  0.192 0 0  0.193 0 0  0.194 0 0  0.195 0 0  0.196 0 0  0.197 0 0  0.198 0 0  0.199 0 0  0.2 0 0  0.201 0 0  0.202 0 0  0.203 0 0  0.204 0 0  0.205 0 0  0.206 0 0  0.207 0 0  0.208 0 0  0.209 0 0  0.21 0 0  0.211 0 0  0.212 0 0  0.213 0 0  0.214 0 0  0.215 0 0  0.216 0 0  0.217 0 0  0.218 0 0  0.219 0 0  0.22 0 0  0.221 0 0  0.222 0 0  0.223 0 0  0.224 0 0  0.225 0 0  0.226 0 0  0.227 0 0  0.228 0 0  0.229 0 0  0.23 0 0  0.231 0 0  0.232 0 0  0.233 0 0  0.234 0 0  0.235 0 0  0.236 0 0  0.237 0 0  0.238 0 0  0.239 0 0  0.24 0 0  0.241 0 0  0.242 0 0  0.243 0 0  0.244 0 0  0.245 0 0  0.246 0 0  0.247 0 0  0.248 0 0  0.249 0 0  0.25 0 0  0.251 0 0  0.252 0 0  0.253 0 0  0.254 0 0  0.255 0 0  0.256 0 0  0.257 0 0  0.258 0 0  0.259 0 0  0.26 0 0  0.261 0 0  0.262 0 0  0.263 0 0  0.264 0 0  0.265 0 0  0.266 0 0  0.267 0 0  0.268 0 0  0.269 0 0  0.27 0 0  0.271 0 0  0.272 0 0  0.273 0 0  0.274 0 0  0.275 0 0  0.276 0 0  0.277 0 0  0.278 0 0  0.279 0 0  0.28 0 0  0.281 0 0  0.282 0 0  0.283 0 0  0.284 0 0  0.285 0 0  0.286 0 0  0.287 0 0  0.288 0 0  0.289 0 0  0.29 0 0  0.291 0 0  0.292 0 0  0.293 0 0  0.294 0 0  0.295 0 0  0.296 0 0  0.297 0 0  0.298 0 0  0.299 0 0  0.3 0 0  0.301 0 0  0.302 0 0  0.303 0 0  0.304 0 0  0.305 0 0  0.306 0 0  0.307 0 0  0.308 0 0  0.309 0 0  0.31 0 0  0.311 0 0  0.312 0 0  0.313 0 0  0.314 0 0  0.315 0 0  0.316 0 0  0.317 0 0  0.318 0 0  0.319 0 0  0.32 0 0  0.321 0 0  0.322 0 0  0.323 0 0  0.324 0 0  0.325 0 0  0.326 0 0  0.327 0 0  0.328 0 0  0.329 0 0  0.33 0 0  0.331 0 0  0.332 0 0  0.333 0 0  0.334 0 0  0.335 0 0  0.336 0 0  0.337 0 0  0.338 0 0  0.339 0 0  0.34 0 0  0.341 0 0  0.342 0 0  0.343 0 0  0.344 0 0  0.345 0 0  0.346 0 0  0.347 0 0  0.348 0 0  0.349 0 0  0.35 0 0  0.351 0 0  0.352 0 0  0.353 0 0  0.354 0 0  0.355 0 0  0.356 0 0  0.357 0 0  0.358 0 0  0.359 0 0  0.36 0 0  0.361 0 0  0.362 0 0  0.363 0 0  0.364 0 0  0.365 0 0  0.366 0 0  0.367 0 0  0.368 0 0  0.369 0 0  0.37 0 0  0.371 0 0  0.372 0 0  0.373 0 0  0.374 0 0  0.375 0 0  0.376 0 0  0.377 0 0  0.378 0 0  0.379 0 0  0.38 0 0  0.381 0 0  0.382 0 0  0.383 0 0  0.384 0 0  0.385 0 0  0.386 0 0  0.387 0 0  0.388 0 0  0.389 0 0  0.39 0 0  0.391 0 0  0.392 0 0  0.393 0 0  0.394 0 0  0.395 0 0  0.396 0 0  0.397 0 0  0.398 0 0  0.399 0 0  0.4 0 0  0.401 0 0  0.402 0 0  0.403 0 0  0.404 0 0  0.405 0 0  0.406 0 0  0.407 0 0  0.408 0 0  0.409 0 0  0.41 0 0  0.411 0 0  0.412 0 0  0.413 0 0  0.414 0 0  0.415 0 0  0.416 0 0  0.417 0 0  0.418 0 0  0.419 0 0  0.42 0 0  0.421 0 0  0.422 0 0  0.423 0 0  0.424 0 0  0.425 0 0  0.426 0 0  0.427 0 0  0.428 0 0  0.429 0 0  0.43 0 0  0.431 0 0  0.432 0 0  0.433 0 0  0.434 0 0  0.435 0 0  0.436 0 0  0.437 0 0  0.438 0 0  0.439 0 0  0.44 0 0  0.441 0 0  0.442 0 0  0.443 0 0  0.444 0 0  0.445 0 0  0.446 0 0  0.447 0 0  0.448 0 0  0.449 0 0  0.45 0 0  0.451 0 0  0.452 0 0  0.453 0 0  0.454 0 0  0.455 0 0  0.456 0 0  0.457 0 0  0.458 0 0  0.459 0 0  0.46 0 0  0.461 0 0  0.462 0 0  0.463 0 0  0.464 0 0  0.465 0 0  0.466 0 0  0.467 0 0  0.468 0 0  0.469 0 0  0.47 0 0  0.471 0 0  0.472 0 0  0.473 0 0  0.474 0 0  0.475 0 0  0.476 0 0  0.477 0 0  0.478 0 0  0.479 0 0  0.48 0 0  0.481 0 0  0.482 0 0  0.483 0 0  0.484 0 0  0.485 0 0  0.486 0 0  0.487 0 0  0.488 0 0  0.489 0 0  0.49 0 0  0.491 0 0  0.492 0 0  0.493 0 0  0.494 0 0  0.495 0 0  0.496 0 0  0.497 0 0  0.498 0 0  0.499 0 0  0.5 0 0  0.501 0 0  0.502 0 0  0.503 0 0  0.504 0 0  0.505 0 0  0.506 0 0  0.507 0 0  0.508 0 0  0.509 0 0  0.51 0 0  0.511 0 0  0.512 0 0  0.513 0 0  0.514 0 0  0.515 0 0  0.516 0 0  0.517 0 0  0.518 0 0  0.519 0 0  0.52 0 0  0.521 0 0  0.522 0 0  0.523 0 0  0.524 0 0  0.525 0 0  0.526 0 0  0.527 0 0  0.528 0 0  0.529 0 0  0.53 0 0  0.531 0 0  0.532 0 0  0.533 0 0  0.534 0 0  0.535 0 0  0.536 0 0  0.537 0 0  0.538 0 0  0.539 0 0  0.54 0 0  0.541 0 0  0.542 0 0  0.543 0 0  0.544 0 0  0.545 0 0  0.546 0 0  0.547 0 0  0.548 0 0  0.549 0 0  0.55 0 0  0.551 0 0  0.552 0 0  0.553 0 0  0.554 0 0  0.555 0 0  0.556 0 0  0.5570000000000001 0 0  0.5580000000000001 0 0  0.5590000000000001 0 0  0.5600000000000001 0 0  0.5610000000000001 0 0  0.5620000000000001 0 0  0.5629999999999999 0 0  0.5639999999999999 0 0  0.5649999999999999 0 0  0.5659999999999999 0 0  0.5669999999999999 0 0  0.5679999999999999 0 0  0.569 0 0  0.57 0 0  0.571 0 0  0.572 0 0  0.573 0 0  0.574 0 0  0.575 0 0  0.576 0 0  0.577 0 0  0.578 0 0  0.579 0 0  0.58 0 0  0.581 0 0  0.582 0 0  0.583 0 0  0.584 0 0  0.585 0 0  0.586 0 0  0.587 0 0  0.588 0 0  0.589 0 0  0.59 0 0  0.591 0 0  0.592 0 0  0.593 0 0  0.594 0 0  0.595 0 0  0.596 0 0  0.597 0 0  0.598 0 0  0.599 0 0  0.6 0 0  0.601 0 0  0.602 0 0  0.603 0 0  0.604 0 0  0.605 0 0  0.606 0 0  0.607 0 0  0.608 0 0  0.609 0 0  0.61 0 0  0.611 0 0  0.612 0 0  0.613 0 0  0.614 0 0  0.615 0 0  0.616 0 0  0.617 0 0  0.618 0 0  0.619 0 0  0.62 0 0  0.621 0 0  0.622 0 0  0.623 0 0  0.624 0 0  0.625 0 0  0.626 0 0  0.627 0 0  0.628 0 0  0.629 0 0  0.63 0 0  0.631 0 0  0.632 0 0  0.633 0 0  0.634 0 0  0.635 0 0  0.636 0 0  0.637 0 0  0.638 0 0  0.639 0 0  0.64 0 0  0.641 0 0  0.642 0 0  0.643 0 0  0.644 0 0  0.645 0 0  0.646 0 0  0.647 0 0  0.648 0 0  0.649 0 0  0.65 0 0  0.651 0 0  0.652 0 0  0.653 0 0  0.654 0 0  0.655 0 0  0.656 0 0  0.657 0 0  0.658 0 0  0.659 0 0  0.66 0 0  0.661 0 0  0.662 0 0  0.663 0 0  0.664 0 0  0.665 0 0  0.666 0 0  0.667 0 0  0.668 0 0  0.669 0 0  0.67 0 0  0.671 0 0  0.672 0 0  0.673 0 0  0.674 0 0  0.675 0 0  0.676 0 0  0.677 0 0  0.678 0 0  0.679 0 0  0.68 0 0  0.681 0 0  0.6820000000000001 0 0  0.6830000000000001 0 0  0.6840000000000001 0 0  0.6850000000000001 0 0  0.6860000000000001 0 0  0.6870000000000001 0 0  0.6879999999999999 0 0  0.6889999999999999 0 0  0.6899999999999999 0 0  0.6909999999999999 0 0  0.6919999999999999 0 0  0.6929999999999999 0 0  0.694 0 0  0.695 0 0  0.696 0 0  0.697 0 0  0.698 0 0  0.699 0 0  0.7 0 0  0.701 0 0  0.702 0 0  0.703 0 0  0.704 0 0  0.705 0 0  0.706 0 0  0.707 0 0  0.708 0 0  0.709 0 0  0.71 0 0  0.711 0 0  0.712 0 0  0.713 0 0  0.714 0 0  0.715 0 0  0.716 0 0  0.717 0 0  0.718 0 0  0.719 0 0  0.72 0 0  0.721 0 0  0.722 0 0  0.723 0 0  0.724 0 0  0.725 0 0  0.726 0 0  0.727 0 0  0.728 0 0  0.729 0 0  0.73 0 0  0.731 0 0  0.732 0 0  0.733 0 0  0.734 0 0  0.735 0 0  0.736 0 0  0.737 0 0  0.738 0 0  0.739 0 0  0.74 0 0  0.741 0 0  0.742 0 0  0.743 0 0  0.744 0 0  0.745 0 0  0.746 0 0  0.747 0 0  0.748 0 0  0.749 0 0  0.75 0 0  0.751 0 0  0.752 0 0  0.753 0 0  0.754 0 0  0.755 0 0  0.756 0 0  0.757 0 0  0.758 0 0  0.759 0 0  0.76 0 0  0.761 0 0  0.762 0 0  0.763 0 0  0.764 0 0  0.765 0 0  0.766 0 0  0.767 0 0  0.768 0 0  0.769 0 0  0.77 0 0  0.771 0 0  0.772 0 0  0.773 0 0  0.774 0 0  0.775 0 0  0.776 0 0  0.777 0 0  0.778 0 0  0.779 0 0  0.78 0 0  0.781 0 0  0.782 0 0  0.783 0 0  0.784 0 0  0.785 0 0  0.786 0 0  0.787 0 0  0.788 0 0  0.789 0 0  0.79 0 0  0.791 0 0  0.792 0 0  0.793 0 0  0.794 0 0  0.795 0 0  0.796 0 0  0.797 0 0  0.798 0 0  0.799 0 0  0.8 0 0  0.801 0 0  0.802 0 0  0.803 0 0  0.804 0 0  0.805 0 0  0.806 0 0  0.8070000000000001 0 0  0.8080000000000001 0 0  0.8090000000000001 0 0  0.8100000000000001 0 0  0.8110000000000001 0 0  0.8120000000000001 0 0  0.8129999999999999 0 0  0.8139999999999999 0 0  0.8149999999999999 0 0  0.8159999999999999 0 0  0.8169999999999999 0 0  0.8179999999999999 0 0  0.819 0 0  0.82 0 0  0.821 0 0  0.822 0 0  0.823 0 0  0.824 0 0  0.825 0 0  0.826 0 0  0.827 0 0  0.828 0 0  0.829 0 0  0.83 0 0  0.831 0 0  0.832 0 0  0.833 0 0  0.834 0 0  0.835 0 0  0.836 0 0  0.837 0 0  0.838 0 0  0.839 0 0  0.84 0 0  0.841 0 0  0
[...]
<PointData  Scalars="f_20-0"> 
<DataArray  type="Float64"  Name="f_20-0"  format="ascii">2.0000003750107993e+00  2.0000003782781808e+00  2.0000003881333712e+00  2.0000004047362929e+00  2.0000004283561457e+00  2.0000004593754310e+00  2.0000004982956661e+00  2.0000005457448649e+00  2.0000006024868870e+00  2.0000006694327750e+00  2.0000007476542407e+00  2.0000008383994783e+00  2.0000009431115191e+00  2.0000010634493721e+00  2.0000012013122275e+00  2.0000013588670558e+00  2.0000015385799439e+00  2.0000017432516066e+00  2.0000019760575123e+00  2.0000022405931679e+00  2.0000025409251192e+00  2.0000028816483484e+00  2.0000032679507793e+00  2.0000037056857209e+00  2.0000042014531578e+00  2.0000047626909074e+00  2.0000053977767660e+00  2.0000061161429281e+00  2.0000069284040607e+00  2.0000078465006075e+00  2.0000088838590520e+00  2.0000100555710740e+00  2.0000113785937290e+00  2.0000128719730319e+00  2.0000145570935728e+00  2.0000164579570825e+00  2.0000186014931809e+00  2.0000210179058899e+00  2.0000237410598589e+00  2.0000268089106963e+00  2.0000302639842436e+00  2.0000341539101463e+00  2.0000385320156320e+00  2.0000434579860187e+00  2.0000489985991527e+00  2.0000552285417204e+00  2.0000622313161847e+00  2.0000701002479739e+00  2.0000789396035552e+00  2.0000888658310449e+00  2.0001000089362249e+00  2.0001125140080536e+00  2.0001265429091850e+00  2.0001422761485146e+00  2.0001599149544078e+00  2.0001796835690708e+00  2.0002018317864998e+00  2.0002266377585194e+00  2.0002544110957698e+00  2.0002854962929844e+00  2.0003202765105965e+00  2.0003591777476593e+00  2.0004026734442051e+00  2.0004512895545981e+00  2.0005056101370791e+00  2.0005662835086824e+00  2.0006340290189022e+00  2.0007096445000530e+00  2.0007940144570830e+00  2.0008881190647938e+00  2.0009930440458827e+00  2.0011099915090522e+00  2.0012402918325951e+00  2.0013854166852929e+00  2.0015469932832772e+00  2.0017268199885492e+00  2.0019268833621786e+00  2.0021493767927598e+00  2.0023967208283842e+00  2.0026715853481916e+00  2.0029769137173599e+00  2.0033159490770673e+00  2.0036922629283520e+00  2.0041097861757979e+00  2.0045728428032912e+00  2.0050861863594975e+00  2.0056550394349104e+00  2.0062851363149301e+00  2.0069827689940092e+00  2.0077548367339331e+00  2.0086088993442170e+00  2.0095532343536471e+00  2.0105968982284366e+00  2.0117497917732829e+00  2.0130227298258769e+00  2.0144275153218310e+00  2.0159770177642691e+00  2.0176852560789911e+00  2.0195674857705481e+00  2.0216402902150006e+00  2.0239216758296479e+00  2.0264311707467710e+00  2.0291899264852851e+00  2.0322208219592710e+00  2.0355485689837862e+00  2.0391998182344486e+00  2.0432032643868983e+00  2.0475897489046795e+00  2.0523923586594832e+00  2.0576465182573211e+00  2.0633900736107345e+00  2.0696633639449535e+00  2.0765092790616411e+00  2.0839732983166210e+00  2.0921035074099246e+00  2.1009505887530668e+00  2.1105677808885761e+00  2.1210108022132945e+00  2.1323377341259357e+00  2.1446088587102108e+00  2.1578864462092451e+00  2.1722344878775637e+00  2.1877183703456518e+00  2.2044044884276572e+00  2.2223597943679585e+00  2.2416512828704445e+00  2.2623454128858711e+00  2.2845074690315381e+00  2.3082008676481158e+00  2.3334864148032390e+00  2.3604215259501045e+00  2.3890594193396146e+00  2.4194482975455709e+00  2.4516305334602206e+00  2.4856418787128232e+00  2.5215107135229005e+00  2.5592573574047153e+00  2.5988934598004469e+00  2.6404214885854702e+00  2.6838343324557021e+00  2.7291150305213820e+00  2.7762366390927959e+00  2.8251622417972242e+00  2.8758451049960185e+00  2.9282289761840832e+00  2.9822485188666525e+00  3.0378298735284615e+00  3.0948913309215556e+00  3.1533441011477348e+00  3.2130931600007400e+00  3.2740381528131457e+00  3.3360743356241640e+00  3.3990935338025214e+00  3.4629850992409632e+00  3.5276368487753156e+00  3.5929359684443276e+00  3.6587698704633866e+00  3.7250269922051089e+00  3.7915975289435404e+00  3.8583740945228535e+00  3.9252523063725775e+00  3.9921312933465831e+00  4.0589141266702189e+00  4.1255081758154741e+00  4.1918253923806326e+00  4.2577825260345934e+00  4.3233012773127575e+00  4.3883083925447002e+00  4.4527357064808637e+00  4.5165201382964133e+00  4.5796036466150172e+00  4.6419331490424662e+00  4.7034604114568612e+00  4.7641419119922928e+00  4.8239386842977758e+00  4.8828161442706985e+00  4.9407439040685217e+00  4.9976955768065157e+00  5.0536485749616498e+00  5.1085839051307822e+00  5.1624859614397822e+00  5.2153423195727937e+00  5.2671435330890972e+00  5.3178829334203463e+00  5.3675564346929017e+00  5.4161623442983551e+00  5.4637011799386359e+00  5.5101754936993848e+00  5.5555897035543973e+00  5.5999499325736641e+00  5.6432638559956105e+00  5.6855405562292045e+00  5.7267903857715181e+00  5.7670248379598323e+00  5.8062564254226317e+00  5.8444985660495927e+00  5.8817654762654250e+00  5.9180720713652022e+00  5.9534338726483380e+00  5.9878669210737243e+00  6.0213876971488993e+00  6.0540130467606756e+00  6.0857601126526681e+00  6.1166462712561867e+00  6.1466890745843310e+00  6.1759061969044060e+00  6.2043153859107480e+00  6.2319344181280565e+00  6.2587810582844634e+00  6.2848730224031790e+00  6.3102279443718814e+00  6.3348633457593824e+00  6.3587966086598939e+00  6.3820449513557893e+00  6.4046254066004735e+00  6.4265548023333885e+00  6.4478497446495222e+00  6.4685266028556807e+00  6.4886014964556393e+00  6.5080902839154824e+00  6.5270085530696011e+00  6.5453716130363864e+00  6.5631944875209420e+00  6.5804919093899841e+00  6.5972783164116926e+00  6.6135678480603097e+00  6.6293743432920538e+00  6.6447113392053554e+00  6.6595920705044245e+00  6.6740294696908053e+00  6.6880361679130420e+00  6.7016244964095497e+00  6.7148064884845162e+00  6.7275938819611936e+00  6.7399981220610359e+00  6.7520303646610733e+00  6.7637014798855759e+00  6.7750220559915268e+00  6.7860024035105067e+00  6.7966525596127134e+00  6.8069822926615551e+00  6.8170011069298084e+00  6.8267182474508932e+00  6.8361427049808734e+00  6.8452832210490779e+00  6.8541482930770314e+00  6.8627461795472717e+00  6.8710849052053016e+00  6.8791722662794159e+00  6.8870158357046902e+00  6.8946229683386404e+00  6.9020008061573792e+00  6.9091562834221767e+00  6.9160961318074525e+00  6.9228268854821238e+00  6.9293548861371761e+00  6.9356862879531924e+00  6.9418270625021687e+00  6.9477830035789090e+00  6.9535597319576610e+00  6.9591627000704666e+00  6.9645971966040570e+00  6.9698683510127983e+00  6.9749811379454663e+00  6.9799403815842025e+00  6.9847507598942427e+00  6.9894168087834654e+00  6.9939429261710444e+00  6.9983333759648154e+00  7.0025922919471517e+00  7.0067236815695120e+00  7.0107314296558689e+00  7.0146193020155341e+00  7.0183909489659815e+00  7.0220499087665029e+00  7.0255996109635728e+00  7.0290433796489831e+00  7.0323844366318626e+00  7.0356259045258582e+00  7.0387708097527080e+00  7.0418220854636777e+00  7.0447825743801955e+00  7.0476550315552284e+00  7.0504421270569111e+00  7.0531464485759461e+00  7.0557705039583958e+00  7.0583167236654107e+00  7.0607874631615948e+00  7.0631850052334899e+00  7.0655115622399238e+00  7.0677692782957866e+00  7.0699602313908461e+00  7.0720864354452200e+00  7.0741498423031253e+00  7.0761523436664318e+00  7.0780957729696379e+00  7.0799819071978076e+00  7.0818124686489421e+00  7.0835891266423960e+00  7.0853134991747035e+00  7.0869871545243681e+00  7.0886116128069840e+00  7.0901883474821323e+00  7.0917187868134102e+00  7.0932043152829491e+00  7.0946462749617512e+00  7.0960459668371243e+00  7.0974046520985006e+00  7.0987235533828397e+00  7.1000038559808640e+00  7.1012467090052898e+00  7.1024532265221580e+00  7.1036244886464770e+00  7.1047615426031721e+00  7.1058654037544740e+00  7.1069370565947478e+00  7.1079774557137618e+00  7.1089875267294085e+00  7.1099681671908046e+00  7.1109202474527127e+00  7.1118446115221330e+00  7.1127420778780621e+00  7.1136134402650901e+00  7.1144594684618463e+00  7.1152809090249374e+00  7.1160784860092585e+00  7.1168529016654007e+00  7.1176048371148291e+00  7.1183349530036644e+00  7.1190438901356199e+00  7.1197322700848522e+00  7.1204006957893462e+00  7.1210497521254297e+00  7.1216800064640688e+00  7.1222920092095130e+00  7.1228862943208595e+00  7.1234633798170686e+00  7.1240237682660039e+00  7.1245679472579919e+00  7.1250963898643773e+00  7.1256095550816250e+00  7.1261078882613580e+00  7.1265918215268433e+00  7.1270617741763278e+00  7.1275181530737006e+00  7.1279613530268113e+00  7.1283917571539384e+00  7.1288097372386998e+00  7.1292156540738523e+00  7.1296098577943052e+00  7.1299926881996836e+00  7.1303644750668234e+00  7.1307255384524781e+00  7.1310761889865706e+00  7.1314167281563225e+00  7.1317474485814962e+00  7.1320686342811026e+00  7.1323805609317787e+00  7.1326834961181822e+00  7.1329776995755836e+00  7.1332634234249701e+00  7.1335409124008562e+00  7.1338104040720598e+00  7.1340721290556575e+00  7.1343263112243447e+00  7.1345731679074174e+00  7.1348129100855608e+00  7.1350457425796545e+00  7.1352718642337942e+00  7.1354914680926864e+00  7.1357047415736430e+00  7.1359118666332790e+00  7.1361130199291622e+00  7.1363083729764911e+00  7.1364980923000392e+00  7.1366823395814665e+00  7.1368612718021334e+00  7.1370350413816279e+00  7.1372037963120416e+00  7.1373676802882358e+00  7.1375268328341264e+00  7.1376813894251905e+00  7.1378314816072583e+00  7.1379772371117509e+00  7.1381187799674262e+00  7.1382562306088007e+00  7.1383897059812922e+00  7.1385193196432466e+00  7.1386451818648613e+00  7.1387673997242338e+00  7.1388860772004605e+00  7.1390013152640224e+00  7.1391132119644576e+00  7.1392218625154316e+00  7.1393273593772850e+00  7.1394297923371361e+00  7.1395292485866131e+00  7.1396258127972958e+00  7.1397195671939180e+00  7.1398105916254044e+00  7.1398989636338470e+00  7.1399847585214271e+00  7.1400680494153814e+00  7.1401489073310582e+00  7.1402274012331226e+00  7.1403035980949898e+00  7.1403775629564858e+00  7.1404493589798665e+00  7.1405190475041609e+00  7.1405866880979607e+00  7.1406523386106597e+00  7.1407160552222102e+00  7.1407778924914087e+00  7.1408379034028275e+00  7.1408961394123303e+00  7.1409526504913092e+00  7.1410074851696068e+00  7.1410606905772305e+00  7.1411123124848244e+00  7.1411623953429881e+00  7.1412109823204597e+00  7.1412581153411780e+00  7.1413038351202847e+00  7.1413481811990804e+00  7.1413911919789657e+00  7.1414329047543958e+00  7.1414733557448793e+00  7.1415125801260269e+00  7.1415506120597483e+00  7.1415874847234875e+00  7.1416232303386638e+00  7.1416578801982471e+00  7.1416914646935021e+00  7.1417240133399931e+00  7.1417555548027245e+00  7.1417861169206107e+00  7.1418157267301412e+00  7.1418444104883498e+00  7.1418721936950735e+00  7.1418991011145039e+00  7.1419251567960682e+00  7.1419503840946463e+00  7.1419748056901247e+00  7.1419984436063109e+00  7.1420213192292277e+00  7.1420434533247796e+00  7.1420648660558079e+00  7.1420855769985634e+00  7.1421056051585765e+00  7.1421249689859607e+00  7.1421436863901544e+00  7.1421617747540909e+00  7.1421792509478319e+00  7.1421961313416702e+00  7.1422124318186873e+00  7.1422281677868176e+00  7.1422433541903931e+00  7.1422580055211968e+00  7.1422721358290273e+00  7.1422857587318012e+00  7.1422988874251923e+00  7.1423115346918049e+00  7.1423237129099384e+00  7.1423354340618896e+00  7.1423467097418847e+00  7.1423575511635775e+00  7.1423679691671760e+00  7.1423779742261901e+00  7.1423875764538245e+00  7.1423967856090149e+00  7.1424056111021379e+00  7.1424140620003946e+00  7.1424221470328924e+00  7.1424298745954147e+00  7.1424372527549318e+00  7.1424442892538167e+00  7.1424509915138339e+00  7.1424573666398432e+00  7.1424634214233027e+00  7.1424691623455248e+00  7.1424745955807447e+00  7.1424797269989480e+00  7.1424845621685371e+00  7.1424891063588074e+00  7.1424933645422328e+00  7.1424973413966031e+00  7.1425010413069865e+00  7.1425044683675543e+00  7.1425076263832370e+00  7.1425105188712656e+00  7.1425131490625624e+00  7.1425155199030064e+00  7.1425176340545802e+00  7.1425194938963816e+00  7.1425211015255332e+00  7.1425224587579645e+00  7.1425235671291043e+00  7.1425244278944362e+00  7.1425250420299715e+00  7.1425254102326070e+00  7.1425255329203754e+00  7.1425254102326070e+00  7.1425250420299715e+00  7.1425244278944362e+00  7.1425235671291043e+00  7.1425224587579645e+00  7.1425211015255332e+00  7.1425194938963816e+00  7.1425176340545802e+00  7.1425155199030064e+00  7.1425131490625606e+00  7.1425105188712648e+00  7.1425076263832370e+00  7.1425044683675551e+00  7.1425010413069865e+00  7.1424973413966031e+00  7.1424933645422328e+00  7.1424891063588056e+00  7.1424845621685353e+00  7.1424797269989453e+00  7.1424745955807420e+00  7.1424691623455212e+00  7.1424634214232965e+00  7.1424573666398361e+00  7.1424509915138268e+00  7.1424442892538096e+00  7.1424372527549247e+00  7.1424298745954111e+00  7.1424221470328915e+00  7.1424140620003955e+00  7.1424056111021370e+00  7.1423967856090131e+00  7.1423875764538245e+00  7.1423779742261919e+00  7.1423679691671795e+00  7.1423575511635802e+00  7.1423467097418891e+00  7.1423354340618941e+00  7.1423237129099402e+00  7.1423115346918076e+00  7.1422988874251914e+00  7.1422857587317985e+00  7.1422721358290220e+00  7.1422580055211915e+00  7.1422433541903887e+00  7.1422281677868140e+00  7.1422124318186855e+00  7.1421961313416711e+00  7.1421792509478346e+00  7.1421617747540918e+00  7.1421436863901544e+00  7.1421249689859607e+00  7.1421056051585747e+00  7.1420855769985652e+00  7.1420648660558097e+00  7.1420434533247787e+00  7.1420213192292277e+00  7.1419984436063109e+00  7.1419748056901247e+00  7.1419503840946463e+00  7.1419251567960682e+00  7.1418991011145057e+00  7.1418721936950762e+00  7.1418444104883534e+00  7.1418157267301421e+00  7.1417861169206143e+00  7.1417555548027254e+00  7.1417240133399931e+00  7.1416914646935066e+00  7.1416578801982471e+00  7.1416232303386655e+00  7.1415874847234875e+00  7.1415506120597492e+00  7.1415125801260286e+00  7.1414733557448749e+00  7.1414329047543967e+00  7.1413911919789648e+00  7.1413481811990804e+00  7.1413038351202838e+00  7.1412581153411789e+00  7.1412109823204597e+00  7.1411623953429899e+00  7.1411123124848270e+00  7.1410606905772323e+00  7.1410074851696104e+00  7.1409526504913092e+00  7.1408961394123294e+00  7.1408379034028249e+00  7.1407778924914060e+00  7.1407160552222049e+00  7.1406523386106580e+00  7.1405866880979572e+00  7.1405190475041582e+00  7.1404493589798657e+00  7.1403775629564858e+00  7.1403035980949907e+00  7.1402274012331288e+00  7.1401489073310591e+00  7.1400680494153832e+00  7.1399847585214271e+00  7.1398989636338461e+00  7.1398105916254018e+00  7.1397195671939171e+00  7.1396258127972967e+00  7.1395292485866122e+00  7.1394297923371308e+00  7.1393273593772806e+00  7.1392218625154289e+00  7.1391132119644576e+00  7.1390013152640206e+00  7.1388860772004605e+00  7.1387673997242320e+00  7.1386451818648595e+00  7.1385193196432404e+00  7.1383897059812940e+00  7.1382562306088024e+00  7.1381187799674288e+00  7.1379772371117527e+00  7.1378314816072610e+00  7.1376813894251914e+00  7.1375268328341264e+00  7.1373676802882358e+00  7.1372037963120416e+00  7.1370350413816288e+00  7.1368612718021343e+00  7.1366823395814665e+00  7.1364980923000383e+00  7.1363083729764902e+00  7.1361130199291622e+00  7.1359118666332835e+00  7.1357047415736448e+00  7.1354914680926891e+00  7.1352718642337916e+00  7.1350457425796536e+00  7.1348129100855591e+00  7.1345731679074174e+00  7.1343263112243447e+00  7.1340721290556575e+00  7.1338104040720633e+00  7.1335409124008597e+00  7.1332634234249719e+00  7.1329776995755854e+00  7.1326834961181840e+00  7.1323805609317814e+00  7.1320686342811044e+00  7.1317474485814980e+00  7.1314167281563225e+00  7.1310761889865697e+00  7.1307255384524773e+00  7.1303644750668251e+00  7.1299926881996845e+00  7.1296098577943043e+00  7.1292156540738505e+00  7.1288097372386954e+00  7.1283917571539357e+00  7.1279613530268104e+00  7.1275181530736953e+00  7.1270617741763269e+00  7.1265918215268433e+00  7.1261078882613598e+00  7.1256095550816259e+00  7.1250963898643738e+00  7.1245679472579893e+00  7.1240237682660030e+00  7.1234633798170686e+00  7.1228862943208586e+00  7.1222920092095166e+00  7.1216800064640688e+00  7.1210497521254306e+00  7.1204006957893498e+00  7.1197322700848531e+00  7.1190438901356199e+00  7.1183349530036688e+00  7.1176048371148344e+00  7.1168529016654016e+00  7.1160784860092647e+00  7.1152809090249400e+00  7.1144594684618490e+00  7.1136134402650937e+00  7.1127420778780621e+00  7.1118446115221330e+00  7.1109202474527065e+00  7.1099681671908055e+00  7.1089875267294085e+00  7.1079774557137609e+00  7.1069370565947452e+00  7.1058654037544731e+00  7.1047615426031676e+00  7.1036244886464734e+00  7.1024532265221554e+00  7.1012467090052871e+00  7.1000038559808631e+00  7.0987235533828406e+00  7.0974046520985006e+00  7.0960459668371252e+00  7.0946462749617503e+00  7.0932043152829483e+00  7.0917187868134084e+00  7.0901883474821306e+00  7.0886116128069814e+00  7.0869871545243628e+00  7.0853134991746991e+00  7.0835891266423916e+00  7.0818124686489403e+00  7.0799819071978032e+00  7.0780957729696388e+00  7.0761523436664291e+00  7.0741498423031235e+00  7.0720864354452200e+00  7.0699602313908443e+00  7.0677692782957866e+00  7.0655115622399238e+00  7.0631850052334899e+00  7.0607874631615974e+00  7.0583167236654134e+00  7.0557705039583949e+00  7.0531464485759479e+00  7.0504421270569129e+00  7.0476550315552302e+00  7.0447825743801964e+00  7.0418220854636786e+00  7.0387708097527071e+00  7.0356259045258556e+00  7.0323844366318617e+00  7.0290433796489804e+00  7.0255996109635710e+00  7.0220499087665003e+00  7.0183909489659806e+00  7.0146193020155341e+00  7.0107314296558716e+00  7.0067236815695146e+00  7.0025922919471553e+00  6.9983333759648199e+00  6.9939429261710471e+00  6.9894168087834636e+00  6.9847507598942391e+00  6.9799403815842034e+00  6.9749811379454663e+00  6.9698683510127983e+00  6.9645971966040570e+00  6.9591627000704683e+00  6.9535597319576663e+00  6.9477830035789134e+00  6.9418270625021741e+00  6.9356862879531951e+00  6.9293548861371805e+00  6.9228268854821247e+00  6.9160961318074552e+00  6.9091562834221785e+00  6.9020008061573810e+00  6.8946229683386422e+00  6.8870158357046911e+00  6.8791722662794150e+00  6.8710849052053016e+00  6.8627461795472762e+00  6.8541482930770350e+00  6.8452832210490833e+00  6.8361427049808761e+00  6.8267182474508967e+00  6.8170011069298146e+00  6.8069822926615577e+00  6.7966525596127179e+00  6.7860024035105111e+00  6.7750220559915313e+00  6.7637014798855803e+00  6.7520303646610742e+00  6.7399981220610385e+00  6.7275938819611971e+00  6.7148064884845153e+00  6.7016244964095524e+00  6.6880361679130447e+00  6.6740294696908062e+00  6.6595920705044254e+00  6.6447113392053581e+00  6.6293743432920502e+00  6.6135678480603080e+00  6.5972783164116917e+00  6.5804919093899841e+00  6.5631944875209420e+00  6.5453716130363873e+00  6.5270085530695985e+00  6.5080902839154806e+00  6.4886014964556384e+00  6.4685266028556807e+00  6.4478497446495222e+00  6.4265548023333885e+00  6.4046254066004726e+00  6.3820449513557866e+00  6.3587966086598913e+00  6.3348633457593779e+00  6.3102279443718752e+00  6.2848730224031746e+00  6.2587810582844590e+00  6.2319344181280565e+00  6.2043153859107480e+00  6.1759061969044078e+00  6.1466890745843328e+00  6.1166462712561858e+00  6.0857601126526681e+00  6.0540130467606748e+00  6.0213876971489011e+00  5.9878669210737234e+00  5.9534338726483371e+00  5.9180720713651986e+00  5.8817654762654241e+00  5.8444985660495909e+00  5.8062564254226308e+00  5.7670248379598332e+00  5.7267903857715217e+00  5.6855405562292036e+00  5.6432638559956096e+00  5.5999499325736615e+00  5.5555897035543964e+00  5.5101754936993901e+00  5.4637011799386421e+00  5.4161623442983622e+00  5.3675564346929079e+00  5.3178829334203517e+00  5.2671435330891043e+00  5.2153423195728017e+00  5.1624859614397938e+00  5.1085839051307946e+00  5.0536485749616658e+00  4.9976955768065299e+00  4.9407439040685333e+00  4.8828161442707110e+00  4.8239386842977883e+00  4.7641419119923034e+00  4.7034604114568728e+00  4.6419331490424