<?xml version="1.0"?>
<VTKFile type="UnstructuredGrid"  version="0.1"  >
<UnstructuredGrid>
<Piece  NumberOfPoints="1001" NumberOfCells="1000">
<Points>
<DataArray  type="Float64"  NumberOfComponents="3"  format="ascii">0 0 0  0.001 0 0  0.002 0 0  0.003 0 0  0.004 0 0  0.005 0 0  0.006 0 0  0.007 0 0  0.008 0 0  0.008999999999999999 0 0  0.01 0 0  0.011 0 0  0.012 0 0  0.013 0 0  0.014 0 0  0.015 0 0  0.016 0 0  0.017 0 0  0.018 0 0  0.019 0 0  0.02 0 0  0.021 0 0  0.022 0 0  0.023 0 0  0.024 0 0  0.025 0 0  0.026 0 0  0.027 0 0  0.028 0 0  0.029 0 0  0.03 0 0  0.031 0 0  0.032 0 0  0.033 0 0  0.034 0 0  0.035 0 0  0.036 0 0  0.037 0 0  0.038 0 0  0.039 0 0  0.04 0 0  0.041 0 0  0.042 0 0  0.043 0 0  0.044 0 0  0.045 0 0  0.046 0 0  0.047 0 0  0.048 0 0  0.049 0 0  0.05 0 0  0.051 0 0  0.052 0 0  0.053 0 0  0.054 0 0  0.055 0 0  0.056 0 0  0.057 0 0  0.058 0 0  0.059 0 0  0.06 0 0  0.061 0 0  0.062 0 0  0.063 0 0  0.064 0 0  0.065 0 0  0.066 0 0  0.067 0 0  0.068 0 0  0.06900000000000001 0 0  0.07000000000000001 0 0  0.07099999999999999 0 0  0.07199999999999999 0 0  0.073 0 0  0.074 0 0  0.075 0 0  0.076 0 0  0.077 0 0  0.078 0 0  0.079 0 0  0.08 0 0  0.081 0 0  0.082 0 0  0.083 0 0  0.08400000000000001 0 0  0.08500000000000001 0 0  0.08599999999999999 0 0  0.08699999999999999 0 0  0.08799999999999999 0 0  0.089 0 0  0.09 0 0  0.091 0 0  0.092 0 0  0.093 0 0  0.094 0 0  0.095 0 0  0.096 0 0  0.097 0 0  0.098 0 0  0.099 0 0  0.1 0 0  0.101 0 0  0.102 0 0  0.103 0 0  0.104 0 0  0.105 0 0  0.106 0 0  0.107 0 0  0.108 0 0  0.109 0 0  0.11 0 0  0.111 0 0  0.112 0 0  0.113 0 0  0.114 0 0  0.115 0 0  0.116 0 0  0.117 0 0  0.118 0 0  0.119 0 0  0.12 0 0  0.121 0 0  0.122 0 0  0.123 0 0  0.124 0 0  0.125 0 0  0.126 0 0  0.127 0 0  0.128 0 0  0.129 0 0  0.13 0 0  0.131 0 0  0.132 0 0  0.133 0 0  0.134 0 0  0.135 0 0  0.136 0 0  0.137 0 0  0.138 0 0  0.139 0 0  0.14 0 0  0.141 0 0  0.142 0 0  0.143 0 0  0.144 0 0  0.145 0 0  0.146 0 0  0.147 0 0  0.148 0 0  0.149 0 0  0.15 0 0  0.151 0 0  0.152 0 0  0.153 0 0  0.154 0 0  0.155 0 0  0.156 0 0  0.157 0 0  0.158 0 0  0.159 0 0  0.16 0 0  0.161 0 0  0.162 0 0  0.163 0 0  0.164 0 0  0.165 0 0  0.166 0 0  0.167 0 0  0.168 0 0  0.169 0 0  0.17 0 0  0.171 0 0  0.172 0 0  0.173 0 0  0.174 0 0  0.175 0 0  0.176 0 0  0.177 0 0  0.178 0 0  0.179 0 0  0.18 0 0  0.181 0 0  0.182 0 0  0.183 0 0  0.184 0 0  0.185 0 0  0.186 0 0  0.187 0 0  0.188 0 0  0.189 0 0  0.19 0 0  0.191 0 0  0.192 0 0  0.193 0 0  0.194 0 0  0.195 0 0  0.196 0 0  0.197 0 0  0.198 0 0  0.199 0 0  0.2 0 0  0.201 0 0  0.202 0 0  0.203 0 0  0.204 0 0  0.205 0 0  0.206 0 0  0.207 0 0  0.208 0 0  0.209 0 0  0.21 0 0  0.211 0 0  0.212 0 0  0.213 0 0  0.214 0 0  0.215 0 0  0.216 0 0  0.217 0 0  0.218 0 0  0.219 0 0  0.22 0 0  0.221 0 0  0.222 0 0  0.223 0 0  0.224 0 0  0.225 0 0  0.226 0 0  0.227 0 0  0.228 0 0  0.229 0 0  0.23 0 0  0.231 0 0  0.232 0 0  0.233 0 0  0.234 0 0  0.235 0 0  0.236 0 0  0.237 0 0  0.238 0 0  0.239 0 0  0.24 0 0  0.241 0 0  0.242 0 0  0.243 0 0  0.244 0 0  0.245 0 0  0.246 0 0  0.247 0 0  0.248 0 0  0.249 0 0  0.25 0 0  0.251 0 0  0.252 0 0  0.253 0 0  0.254 0 0  0.255 0 0  0.256 0 0  0.257 0 0  0.258 0 0  0.259 0 0  0.26 0 0  0.261 0 0  0.262 0 0  0.263 0 0  0.264 0 0  0.265 0 0  0.266 0 0  0.267 0 0  0.268 0 0  0.269 0 0  0.27 0 0  0.271 0 0  0.272 0 0  0.273 0 0  0.274 0 0  0.275 0 0  0.276 0 0  0.277 0 0  0.278 0 0  0.279 0 0  0.28 0 0  0.281 0 0  0.282 0 0  0.283 0 0  0.284 0 0  0.285 0 0  0.286 0 0  0.287 0 0  0.288 0 0  0.289 0 0  0.29 0 0  0.291 0 0  0.292 0 0  0.293 0 0  0.294 0 0  0.295 0 0  0.296 0 0  0.297 0 0  0.298 0 0  0.299 0 0  0.3 0 0  0.301 0 0  0.302 0 0  0.303 0 0  0.304 0 0  0.305 0 0  0.306 0 0  0.307 0 0  0.308 0 0  0.309 0 0  0.31 0 0  0.311 0 0  0.312 0 0  0.313 0 0  0.314 0 0  0.315 0 0  0.316 0 0  0.317 0 0  0.318 0 0  0.319 0 0  0.32 0 0  0.321 0 0  0.322 0 0  0.323 0 0  0.324 0 0  0.325 0 0  0.326 0 0  0.327 0 0  0.328 0 0  0.329 0 0  0.33 0 0  0.331 0 0  0.332 0 0  0.333 0 0  0.334 0 0  0.335 0 0  0.336 0 0  0.337 0 0  0.338 0 0  0.339 0 0  0.34 0 0  0.341 0 0  0.342 0 0  0.343 0 0  0.344 0 0  0.345 0 0  0.346 0 0  0.347 0 0  0.348 0 0  0.349 0 0  0.35 0 0  0.351 0 0  0.352 0 0  0.353 0 0  0.354 0 0  0.355 0 0  0.356 0 0  0.357 0 0  0.358 0 0  0.359 0 0  0.36 0 0  0.361 0 0  0.362 0 0  0.363 0 0  0.364 0 0  0.365 0 0  0.366 0 0  0.367 0 0  0.368 0 0  0.369 0 0  0.37 0 0  0.371 0 0  0.372 0 0  0.373 0 0  0.374 0 0  0.375 0 0  0.376 0 0  0.377 0 0  0.378 0 0  0.379 0 0  0.38 0 0  0.381 0 0  0.382 0 0  0.383 0 0  0.384 0 0  0.385 0 0  0.386 0 0  0.387 0 0  0.388 0 0  0.389 0 0  0.39 0 0  0.391 0 0  0.392 0 0  0.393 0 0  0.394 0 0  0.395 0 0  0.396 0 0  0.397 0 0  0.398 0 0  0.399 0 0  0.4 0 0  0.401 0 0  0.402 0 0  0.403 0 0  0.404 0 0  0.405 0 0  0.406 0 0  0.407 0 0  0.408 0 0  0.409 0 0  0.41 0 0  0.411 0 0  0.412 0 0  0.413 0 0  0.414 0 0  0.415 0 0  0.416 0 0  0.417 0 0  0.418 0 0  0.419 0 0  0.42 0 0  0.421 0 0  0.422 0 0  0.423 0 0  0.424 0 0  0.425 0 0  0.426 0 0  0.427 0 0  0.428 0 0  0.429 0 0  0.43 0 0  0.431 0 0  0.432 0 0  0.433 0 0  0.434 0 0  0.435 0 0  0.436 0 0  0.437 0 0  0.438 0 0  0.439 0 0  0.44 0 0  0.441 0 0  0.442 0 0  0.443 0 0  0.444 0 0  0.445 0 0  0.446 0 0  0.447 0 0  0.448 0 0  0.449 0 0  0.45 0 0  0.451 0 0  0.452 0 0  0.453 0 0  0.454 0 0  0.455 0 0  0.456 0 0  0.457 0 0  0.458 0 0  0.459 0 0  0.46 0 0  0.461 0 0  0.462 0 0  0.463 0 0  0.464 0 0  0.465 0 0  0.466 0 0  0.467 0 0  0.468 0 0  0.469 0 0  0.47 0 0  0.471 0 0  0.472 0 0  0.473 0 0  0.474 0 0  0.475 0 0  0.476 0 0  0.477 0 0  0.478 0 0  0.479 0 0  0.48 0 0  0.481 0 0  0.482 0 0  0.483 0 0  0.484 0 0  0.485 0 0  0.486 0 0  0.487 0 0  0.488 0 0  0.489 0 0  0.49 0 0  0.491 0 0  0.492 0 0  0.493 0 0  0.494 0 0  0.495 0 0  0.496 0 0  0.497 0 0  0.498 0 0  0.499 0 0  0.5 0 0  0.501 0 0  0.502 0 0  0.503 0 0  0.504 0 0  0.505 0 0  0.506 0 0  0.507 0 0  0.508 0 0  0.509 0 0  0.51 0 0  0.511 0 0  0.512 0 0  0.513 0 0  0.514 0 0  0.515 0 0  0.516 0 0  0.517 0 0  0.518 0 0  0.519 0 0  0.52 0 0  0.521 0 0  0.522 0 0  0.523 0 0  0.524 0 0  0.525 0 0  0.526 0 0  0.527 0 0  0.528 0 0  0.529 0 0  0.53 0 0  0.531 0 0  0.532 0 0  0.533 0 0  0.534 0 0  0.535 0 0  0.536 0 0  0.537 0 0  0.538 0 0  0.539 0 0  0.54 0 0  0.541 0 0  0.542 0 0  0.543 0 0  0.544 0 0  0.545 0 0  0.546 0 0  0.547 0 0  0.548 0 0  0.549 0 0  0.55 0 0  0.551 0 0  0.552 0 0  0.553 0 0  0.554 0 0  0.555 0 0  0.556 0 0  0.5570000000000001 0 0  0.5580000000000001 0 0  0.5590000000000001 0 0  0.5600000000000001 0 0  0.5610000000000001 0 0  0.5620000000000001 0 0  0.5629999999999999 0 0  0.5639999999999999 0 0  0.5649999999999999 0 0  0.5659999999999999 0 0  0.5669999999999999 0 0  0.5679999999999999 0 0  0.569 0 0  0.57 0 0  0.571 0 0  0.572 0 0  0.573 0 0  0.574 0 0  0.575 0 0  0.576 0 0  0.577 0 0  0.578 0 0  0.579 0 0  0.58 0 0  0.581 0 0  0.582 0 0  0.583 0 0  0.584 0 0  0.585 0 0  0.586 0 0  0.587 0 0  0.588 0 0  0.589 0 0  0.59 0 0  0.591 0 0  0.592 0 0  0.593 0 0  0.594 0 0  0.595 0 0  0.596 0 0  0.597 0 0  0.598 0 0  0.599 0 0  0.6 0 0  0.601 0 0  0.602 0 0  0.603 0 0  0.604 0 0  0.605 0 0  0.606 0 0  0.607 0 0  0.608 0 0  0.609 0 0  0.61 0 0  0.611 0 0  0.612 0 0  0.613 0 0  0.614 0 0  0.615 0 0  0.616 0 0  0.617 0 0  0.618 0 0  0.619 0 0  0.62 0 0  0.621 0 0  0.622 0 0  0.623 0 0  0.624 0 0  0.625 0 0  0.626 0 0  0.627 0 0  0.628 0 0  0.629 0 0  0.63 0 0  0.631 0 0  0.632 0 0  0.633 0 0  0.634 0 0  0.635 0 0  0.636 0 0  0.637 0 0  0.638 0 0  0.639 0 0  0.64 0 0  0.641 0 0  0.642 0 0  0.643 0 0  0.644 0 0  0.645 0 0  0.646 0 0  0.647 0 0  0.648 0 0  0.649 0 0  0.65 0 0  0.651 0 0  0.652 0 0  0.653 0 0  0.654 0 0  0.655 0 0  0.656 0 0  0.657 0 0  0.658 0 0  0.659 0 0  0.66 0 0  0.661 0 0  0.662 0 0  0.663 0 0  0.664 0 0  0.665 0 0  0.666 0 0  0.667 0 0  0.668 0 0  0.669 0 0  0.67 0 0  0.671 0 0  0.672 0 0  0.673 0 0  0.674 0 0  0.675 0 0  0.676 0 0  0.677 0 0  0.678 0 0  0.679 0 0  0.68 0 0  0.681 0 0  0.6820000000000001 0 0  0.6830000000000001 0 0  0.6840000000000001 0 0  0.6850000000000001 0 0  0.6860000000000001 0 0  0.6870000000000001 0 0  0.6879999999999999 0 0  0.6889999999999999 0 0  0.6899999999999999 0 0  0.6909999999999999 0 0  0.6919999999999999 0 0  0.6929999999999999 0 0  0.694 0 0  0.695 0 0  0.696 0 0  0.697 0 0  0.698 0 0  0.699 0 0  0.7 0 0  0.701 0 0  0.702 0 0  0.703 0 0  0.704 0 0  0.705 0 0  0.706 0 0  0.707 0 0  0.708 0 0  0.709 0 0  0.71 0 0  0.711 0 0  0.712 0 0  0.713 0 0  0.714 0 0  0.715 0 0  0.716 0 0  0.717 0 0  0.718 0 0  0.719 0 0  0.72 0 0  0.721 0 0  0.722 0 0  0.723 0 0  0.724 0 0  0.725 0 0  0.726 0 0  0.727 0 0  0.728 0 0  0.729 0 0  0.73 0 0  0.731 0 0  0.732 0 0  0.733 0 0  0.734 0 0  0.735 0 0  0.736 0 0  0.737 0 0  0.738 0 0  0.739 0 0  0.74 0 0  0.741 0 0  0.742 0 0  0.743 0 0  0.744 0 0  0.745 0 0  0.746 0 0  0.747 0 0  0.748 0 0  0.749 0 0  0.75 0 0  0.751 0 0  0.752 0 0  0.753 0 0  0.754 0 0  0.755 0 0  0.756 0 0  0.757 0 0  0.758 0 0  0.759 0 0  0.76 0 0  0.761 0 0  0.762 0 0  0.763 0 0  0.764 0 0  0.765 0 0  0.766 0 0  0.767 0 0  0.768 0 0  0.769 0 0  0.77 0 0  0.771 0 0  0.772 0 0  0.773 0 0  0.774 0 0  0.775 0 0  0.776 0 0  0.777 0 0  0.778 0 0  0.779 0 0  0.78 0 0  0.781 0 0  0.782 0 0  0.783 0 0  0.784 0 0  0.785 0 0  0.786 0 0  0.787 0 0  0.788 0 0  0.789 0 0  0.79 0 0  0.791 0 0  0.792 0 0  0.793 0 0  0.794 0 0  0.795 0 0  0.796 0 0  0.797 0 0  0.798 0 0  0.799 0 0  0.8 0 0  0.801 0 0  0.802 0 0  0.803 0 0  0.804 0 0  0.805 0 0  0.806 0 0  0.8070000000000001 0 0  0.8080000000000001 0 0  0.8090000000000001 0 0  0.8100000000000001 0 0  0.8110000000000001 0 0  0.8120000000000001 0 0  0.8129999999999999 0 0  0.8139999999999999 0 0  0.8149999999999999 0 0  0.8159999999999999 0 0  0.8169999999999999 0 0  0.8179999999999999 0 0  0.819 0 0  0.82 0 0  0.821 0 0  0.822 0 0  0.823 0 0  0.824 0 0  0.825 0 0  0.826 0 0  0.827 0 0  0.828 0 0  0.829 0 0  0.83 0 0  0.831 0 0  0.832 0 0  0.833 0 0  0.834 0 0  0.835 0 0  0.836 0 0  0.837 0 0  0.838 0 0  0.839 0 0  0.84 0 0  0.841 0 0  0
[...]
<PointData  Scalars="f_20-0"> 
<DataArray  type="Float64"  Name="f_20-0"  format="ascii">2.0000000004596501e+00  2.0000000004649428e+00  2.0000000004809348e+00  2.0000000005079737e+00  2.0000000005466458e+00  2.0000000005977876e+00  2.0000000006625043e+00  2.0000000007421921e+00  2.0000000008385665e+00  2.0000000009536931e+00  2.0000000010900347e+00  2.0000000012504975e+00  2.0000000014384911e+00  2.0000000016579929e+00  2.0000000019136288e+00  2.0000000022107658e+00  2.0000000025556157e+00  2.0000000029553568e+00  2.0000000034182750e+00  2.0000000039539190e+00  2.0000000045732929e+00  2.0000000052890612e+00  2.0000000061157919e+00  2.0000000070702342e+00  2.0000000081716318e+00  2.0000000094420893e+00  2.0000000109069846e+00  2.0000000125954385e+00  2.0000000145408574e+00  2.0000000167815473e+00  2.0000000193614142e+00  2.0000000223307688e+00  2.0000000257472341e+00  2.0000000296767895e+00  2.0000000341949513e+00  2.0000000393881194e+00  2.0000000453551192e+00  2.0000000522089385e+00  2.0000000600787158e+00  2.0000000691119957e+00  2.0000000794772927e+00  2.0000000913670029e+00  2.0000001050007095e+00  2.0000001206289397e+00  2.0000001385374189e+00  2.0000001590519014e+00  2.0000001825436482e+00  2.0000002094356306e+00  2.0000002402095620e+00  2.0000002754138571e+00  2.0000003156726489e+00  2.0000003616959829e+00  2.0000004142913572e+00  2.0000004743767663e+00  2.0000005429954428e+00  2.0000006213325170e+00  2.0000007107338331e+00  2.0000008127271856e+00  2.0000009290462923e+00  2.0000010616578341e+00  2.0000012127919433e+00  2.0000013849765743e+00  2.0000015810762322e+00  2.0000018043355881e+00  2.0000020584285840e+00  2.0000023475136905e+00  2.0000026762960839e+00  2.0000030500975461e+00  2.0000034749350459e+00  2.0000039576090303e+00  2.0000045058025773e+00  2.0000051281927242e+00  2.0000058345753908e+00  2.0000066360055135e+00  2.0000075449541752e+00  2.0000085754847157e+00  2.0000097434500379e+00  2.0000110667135576e+00  2.0000125653965362e+00  2.0000142621548309e+00  2.0000161824884133e+00  2.0000183550874024e+00  2.0000208122187502e+00  2.0000235901581589e+00  2.0000267296723151e+00  2.0000302765570752e+00  2.0000342822378094e+00  2.0000388044387885e+00  2.0000439079292311e+00  2.0000496653543993e+00  2.0000561581610161e+00  2.0000634776272399e+00  2.0000717260084691e+00  2.0000810178114059e+00  2.0000914812100672e+00  2.0001032596187955e+00  2.0001165134388375e+00  2.0001314219966835e+00  2.0001481856941639e+00  2.0001670283922284e+00  2.0001882000524644e+00  2.0002119796627182e+00  2.0002386784756609e+00  2.0002686435918848e+00  2.0003022619220348e+00  2.0003399645656414e+00  2.0003822316478059e+00  2.0004295976585373e+00  2.0004826573435350e+00  2.0005420721995235e+00  2.0006085776318145e+00  2.0006829908366748e+00  2.0007662194763567e+00  2.0008592712202171e+00  2.0009632642312876e+00  2.0010794386839441e+00  2.0012091694049454e+00  2.0013539797370647e+00  2.0015155567318148e+00  2.0016957677853400e+00  2.0018966788393331e+00  2.0021205742768933e+00  2.0023699786513331e+00  2.0026476803942042e+00  2.0029567576568739e+00  2.0033006064479557e+00  2.0036829712364530e+00  2.0041079781974256e+00  2.0045801712831848e+00  2.0051045513080257e+00  2.0056866182380384e+00  2.0063324168791916e+00  2.0070485861560576e+00  2.0078424121697735e+00  2.0087218852163247e+00  2.0096957609342709e+00  2.0107736257336231e+00  2.0119659666337832e+00  2.0132842456069491e+00  2.0147409784829868e+00  2.0163498184208533e+00  2.0181256438887107e+00  2.0200846510179868e+00  2.0222444501040018e+00  2.0246241659153692e+00  2.0272445413439883e+00  2.0301280437751830e+00  2.0332989733812488e+00  2.0367835723396457e+00  2.0406101337478106e+00  2.0448091087491624e+00  2.0494132100991278e+00  2.0544575100868649e+00  2.0599795303899224e+00  2.0660193210793518e+00  2.0726195256178404e+00  2.0798254283118296e+00  2.0876849803019302e+00  2.0962487998192221e+00  2.1055701421167119e+00  2.1157048342279889e+00  2.1267111695349912e+00  2.1386497570736536e+00  2.1515833206024193e+00  2.1655764427382271e+00  2.1806952499614654e+00  2.1970070350368869e+00  2.2145798144176068e+00  2.2334818195114003e+00  2.2537809222973171e+00  2.2755439976748093e+00  2.2988362270759963e+00  2.3237203502208073e+00  2.3502558743671282e+00  2.3784982529030625e+00  2.4084980475240347e+00  2.4403000903968310e+00  2.4739426644904623e+00  2.5094567215074655e+00  2.5468651574501386e+00  2.5861821657019415e+00  2.6274126865305432e+00  2.6705519701086744e+00  2.7155852675384566e+00  2.7624876610452720e+00  2.8112240406203202e+00  2.8617492301210863e+00  2.9140082613985108e+00  2.9679367906346794e+00  3.0234616469653890e+00  3.0805014998273190e+00  3.1389676284721832e+00  3.1987647748463086e+00  3.2597920596075203e+00  3.3219439404526567e+00  3.3851111921202675e+00  3.4491818883345045e+00  3.5140423674568471e+00  3.5795781655815797e+00  3.6456749031095508e+00  3.7122191133253759e+00  3.7790990040585615e+00  3.8462051460181406e+00  3.9134310837625033e+00  3.9806738674323570e+00  4.0478345052877067e+00  4.1148183387223378e+00  4.1815353427715882e+00  4.2479003561858510e+00  4.3138332459288264e+00  4.3792590114995207e+00  4.4441078347988956e+00  4.5083150813966562e+00  4.5718212590325811e+00  4.6345719390402849e+00  4.6965176461378588e+00  4.7576137217146002e+00  4.8178201653788761e+00  4.8771014591375010e+00  4.9354263781680245e+00  4.9927677917345559e+00  5.0491024573951417e+00  5.1044108112618458e+00  5.1586767567088216e+00  5.2118874535826212e+00  5.2640331096546165e+00  5.3151067757691566e+00  5.3651041458825270e+00  5.4140233629567085e+00  5.4618648314670573e+00  5.5086310371028944e+00  5.5543263740828817e+00  5.5989569803713231e+00  5.6425305809649791e+00  5.6850563393211475e+00  5.7265447169144235e+00  5.7670073408404239e+00  5.8064568793277420e+00  5.8449069249735466e+00  5.8823718854814953e+00  5.9188668816525212e+00  5.9544076523576610e+00  5.9890104662070183e+00  6.0226920396189660e+00  6.0554694609880002e+00  6.0873601206477099e+00  6.1183816463264078e+00  6.1485518437963744e+00  6.1778886424233832e+00  6.2064100453301458e+00  6.2341340838958841e+00  6.2610787763235098e+00  6.2872620900159957e+00  6.3127019075140947e+00  6.3374159957584428e+00  6.3614219784500445e+00  6.3847373112943160e+00  6.4073792599247206e+00  6.4293648803129519e+00  6.4507110014831603e+00  6.4714342103581091e+00  6.4915508385751117e+00  6.5110769511192785e+00  6.5300283366309060e+00  6.5484204992527095e+00  6.5662686518912237e+00  6.5835877107746716e+00  6.6003922911974362e+00  6.6166967043485414e+00  6.6325149551285536e+00  6.6478607408658341e+00  6.6627474508492943e+00  6.6771881666006641e+00  6.6911956628148133e+00  6.7047824089018144e+00  6.7179605710693187e+00  6.7307420148883796e+00  6.7431383082901766e+00  6.7551607249450498e+00  6.7668202479790409e+00  6.7781275739866551e+00  6.7890931173017961e+00  6.7997270144919195e+00  6.8100391290432905e+00  6.8200390562078637e+00  6.8297361279848667e+00  6.8391394182123015e+00  6.8482577477459223e+00  6.8570996897050636e+00  6.8656735747666415e+00  6.8739874964903258e+00  6.8820493166594474e+00  6.8898666706237490e+00  6.8974469726313457e+00  6.9047974211385936e+00  6.9119250040877054e+00  6.9188365041430497e+00  6.9255385038779673e+00  6.9320373909050046e+00  6.9383393629431680e+00  6.9444504328166383e+00  6.9503764333801072e+00  6.9561230223664987e+00  6.9616956871534983e+00  6.9670997494458176e+00  6.9723403698706301e+00  6.9774225524840796e+00  6.9823511491872283e+00  6.9871308640500631e+00  6.9917662575426744e+00  6.9962617506729448e+00  7.0006216290303955e+00  7.0048500467360979e+00  7.0089510302987819e+00  7.0129284823775038e+00  7.0167861854513713e+00  7.0205278053970908e+00  7.0241568949750945e+00  7.0276768972253434e+00  7.0310911487737906e+00  7.0344028830507996e+00  7.0376152334227591e+00  7.0407312362382646e+00  7.0437538337903440e+00  7.0466858771961656e+00  7.0495301291957970e+00  7.0522892668715951e+00  7.0549658842898264e+00  7.0575624950661462e+00  7.0600815348566144e+00  7.0625253637758716e+00  7.0648962687441763e+00  7.0671964657649688e+00  7.0694281021346033e+00  7.0715932585859784e+00  7.0736939513676242e+00  7.0757321342599964e+00  7.0777097005304981e+00  7.0796284848289268e+00  7.0814902650248621e+00  7.0832967639886393e+00  7.0850496513173642e+00  7.0867505450075843e+00  7.0884010130760053e+00  7.0900025751298275e+00  7.0915567038880551e+00  7.0930648266552394e+00  7.0945283267490202e+00  7.0959485448827984e+00  7.0973267805049289e+00  7.0986642930956183e+00  7.0999623034229105e+00  7.1012219947588999e+00  7.1024445140574199e+00  7.1036309730943579e+00  7.1047824495717720e+00  7.1058999881868745e+00  7.1069846016670146e+00  7.1080372717716758e+00  7.1090589502625434e+00  7.1100505598426258e+00  7.1110129950654004e+00  7.1119471232149349e+00  7.1128537851578866e+00  7.1137337961683000e+00  7.1145879467260302e+00  7.1154170032896467e+00  7.1162217090446598e+00  7.1170027846277950e+00  7.1177609288281474e+00  7.1184968192659523e+00  7.1192111130496096e+00  7.1199044474118054e+00  7.1205774403252837e+00  7.1212306910989689e+00  7.1218647809551090e+00  7.1224802735879900e+00  7.1230777157048797e+00  7.1236576375497416e+00  7.1242205534102911e+00  7.1247669621089482e+00  7.1252973474781811e+00  7.1258121788207891e+00  7.1263119113555877e+00  7.1267969866489818e+00  7.1272678330328896e+00  7.1277248660094576e+00  7.1281684886430225e+00  7.1285990919396909e+00  7.1290170552149883e+00  7.1294227464499462e+00  7.1298165226359984e+00  7.1301987301090781e+00  7.1305697048732535e+00  7.1309297729142216e+00  7.1312792505030433e+00  7.1316184444904005e+00  7.1319476525916938e+00  7.1322671636632835e+00  7.1325772579701532e+00  7.1328782074453052e+00  7.1331702759411151e+00  7.1334537194729322e+00  7.1337287864551930e+00  7.1339957179302411e+00  7.1342547477901492e+00  7.1345061029917298e+00  7.1347500037649878e+00  7.1349866638151775e+00  7.1352162905187315e+00  7.1354390851132239e+00  7.1356552428815618e+00  7.1358649533306062e+00  7.1360684003644010e+00  7.1362657624521546e+00  7.1364572127912140e+00  7.1366429194650998e+00  7.1368230455968273e+00  7.1369977494976826e+00  7.1371671848115037e+00  7.1373315006547458e+00  7.1374908417523351e+00  7.1376453485695555e+00  7.1377951574400216e+00  7.1379404006899030e+00  7.1380812067585042e+00  7.1382177003153133e+00  7.1383500023736355e+00  7.1384782304009144e+00  7.1386024984258238e+00  7.1387229171422817e+00  7.1388395940103724e+00  7.1389526333543722e+00  7.1390621364578752e+00  7.1391682016561484e+00  7.1392709244257162e+00  7.1393703974713159e+00  7.1394667108102228e+00  7.1395599518540074e+00  7.1396502054877802e+00  7.1397375541469508e+00  7.1398220778915693e+00  7.1399038544782067e+00  7.1399829594295063e+00  7.1400594661013272e+00  7.1401334457475532e+00  7.1402049675826067e+00  7.1402740988416253e+00  7.1403409048383519e+00  7.1404054490207347e+00  7.1404677930243059e+00  7.1405279967232378e+00  7.1405861182792512e+00  7.1406422141882420e+00  7.1406963393247613e+00  7.1407485469843177e+00  7.1407988889235394e+00  7.1408474153982437e+00  7.1408941751994410e+00  7.1409392156873119e+00  7.1409825828232156e+00  7.1410243211997662e+00  7.1410644740690570e+00  7.1411030833690496e+00  7.1411401897482518e+00  7.1411758325886838e+00  7.1412100500272659e+00  7.1412428789756444e+00  7.1412743551385880e+00  7.1413045130309563e+00  7.1413333859934101e+00  7.1413610062068598e+00  7.1413874047057551e+00  7.1414126113903151e+00  7.1414366550377331e+00  7.1414595633124724e+00  7.1414813627756670e+00  7.1415020788937387e+00  7.1415217360462799e+00  7.1415403575332617e+00  7.1415579655816064e+00  7.1415745813512110e+00  7.1415902249404288e+00  7.1416049153910945e+00  7.1416186706930915e+00  7.1416315077885386e+00  7.1416434425755986e+00  7.1416544899119359e+00  7.1416646636178873e+00  7.1416739764793062e+00  7.1416824402501700e+00  7.1416900656549105e+00  7.1416968623904928e+00  7.1417028391283122e+00  7.1417080035158005e+00  7.1417123621778877e+00  7.1417159207182346e+00  7.1417186837202564e+00  7.1417206547479610e+00  7.1417218363466084e+00  7.1417222300431717e+00  7.1417218363466102e+00  7.1417206547479628e+00  7.1417186837202573e+00  7.1417159207182408e+00  7.1417123621778922e+00  7.1417080035158005e+00  7.1417028391283122e+00  7.1416968623904964e+00  7.1416900656549105e+00  7.1416824402501708e+00  7.1416739764793054e+00  7.1416646636178847e+00  7.1416544899119367e+00  7.1416434425755968e+00  7.1416315077885386e+00  7.1416186706930906e+00  7.1416049153910919e+00  7.1415902249404279e+00  7.1415745813512119e+00  7.1415579655816073e+00  7.1415403575332626e+00  7.1415217360462790e+00  7.1415020788937360e+00  7.1414813627756679e+00  7.1414595633124716e+00  7.1414366550377322e+00  7.1414126113903134e+00  7.1413874047057551e+00  7.1413610062068607e+00  7.1413333859934109e+00  7.1413045130309580e+00  7.1412743551385853e+00  7.1412428789756488e+00  7.1412100500272651e+00  7.1411758325886820e+00  7.1411401897482492e+00  7.1411030833690488e+00  7.1410644740690543e+00  7.1410243211997662e+00  7.1409825828232156e+00  7.1409392156873119e+00  7.1408941751994401e+00  7.1408474153982437e+00  7.1407988889235403e+00  7.1407485469843204e+00  7.1406963393247658e+00  7.1406422141882464e+00  7.1405861182792565e+00  7.1405279967232440e+00  7.1404677930243086e+00  7.1404054490207374e+00  7.1403409048383510e+00  7.1402740988416245e+00  7.1402049675826040e+00  7.1401334457475496e+00  7.1400594661013237e+00  7.1399829594295081e+00  7.1399038544782085e+00  7.1398220778915649e+00  7.1397375541469508e+00  7.1396502054877757e+00  7.1395599518540056e+00  7.1394667108102237e+00  7.1393703974713167e+00  7.1392709244257171e+00  7.1391682016561502e+00  7.1390621364578770e+00  7.1389526333543687e+00  7.1388395940103706e+00  7.1387229171422790e+00  7.1386024984258230e+00  7.1384782304009118e+00  7.1383500023736381e+00  7.1382177003153160e+00  7.1380812067585078e+00  7.1379404006899065e+00  7.1377951574400234e+00  7.1376453485695572e+00  7.1374908417523359e+00  7.1373315006547431e+00  7.1371671848115019e+00  7.1369977494976773e+00  7.1368230455968256e+00  7.1366429194650944e+00  7.1364572127912140e+00  7.1362657624521546e+00  7.1360684003643966e+00  7.1358649533306036e+00  7.1356552428815583e+00  7.1354390851132212e+00  7.1352162905187289e+00  7.1349866638151758e+00  7.1347500037649860e+00  7.1345061029917298e+00  7.1342547477901492e+00  7.1339957179302438e+00  7.1337287864551948e+00  7.1334537194729375e+00  7.1331702759411160e+00  7.1328782074453061e+00  7.1325772579701523e+00  7.1322671636632808e+00  7.1319476525916938e+00  7.1316184444903987e+00  7.1312792505030416e+00  7.1309297729142216e+00  7.1305697048732526e+00  7.1301987301090763e+00  7.1298165226359975e+00  7.1294227464499427e+00  7.1290170552149883e+00  7.1285990919396918e+00  7.1281684886430243e+00  7.1277248660094603e+00  7.1272678330328905e+00  7.1267969866489853e+00  7.1263119113555922e+00  7.1258121788207971e+00  7.1252973474781864e+00  7.1247669621089527e+00  7.1242205534102974e+00  7.1236576375497433e+00  7.1230777157048797e+00  7.1224802735879882e+00  7.1218647809551046e+00  7.1212306910989662e+00  7.1205774403252784e+00  7.1199044474118045e+00  7.1192111130496096e+00  7.1184968192659523e+00  7.1177609288281536e+00  7.1170027846277977e+00  7.1162217090446624e+00  7.1154170032896502e+00  7.1145879467260311e+00  7.1137337961683018e+00  7.1128537851578884e+00  7.1119471232149385e+00  7.1110129950654057e+00  7.1100505598426293e+00  7.1090589502625425e+00  7.1080372717716722e+00  7.1069846016670093e+00  7.1058999881868719e+00  7.1047824495717702e+00  7.1036309730943570e+00  7.1024445140574191e+00  7.1012219947588999e+00  7.0999623034229105e+00  7.0986642930956139e+00  7.0973267805049263e+00  7.0959485448827984e+00  7.0945283267490211e+00  7.0930648266552403e+00  7.0915567038880551e+00  7.0900025751298248e+00  7.0884010130760045e+00  7.0867505450075852e+00  7.0850496513173669e+00  7.0832967639886393e+00  7.0814902650248657e+00  7.0796284848289268e+00  7.0777097005305043e+00  7.0757321342599990e+00  7.0736939513676260e+00  7.0715932585859775e+00  7.0694281021346015e+00  7.0671964657649662e+00  7.0648962687441754e+00  7.0625253637758698e+00  7.0600815348566108e+00  7.0575624950661418e+00  7.0549658842898229e+00  7.0522892668715933e+00  7.0495301291957997e+00  7.0466858771961682e+00  7.0437538337903440e+00  7.0407312362382637e+00  7.0376152334227555e+00  7.0344028830507996e+00  7.0310911487737906e+00  7.0276768972253461e+00  7.0241568949750981e+00  7.0205278053970916e+00  7.0167861854513758e+00  7.0129284823775055e+00  7.0089510302987863e+00  7.0048500467360997e+00  7.0006216290303964e+00  6.9962617506729448e+00  6.9917662575426744e+00  6.9871308640500631e+00  6.9823511491872283e+00  6.9774225524840787e+00  6.9723403698706266e+00  6.9670997494458184e+00  6.9616956871534992e+00  6.9561230223664978e+00  6.9503764333801055e+00  6.9444504328166383e+00  6.9383393629431671e+00  6.9320373909050055e+00  6.9255385038779673e+00  6.9188365041430506e+00  6.9119250040877098e+00  6.9047974211385927e+00  6.8974469726313483e+00  6.8898666706237499e+00  6.8820493166594492e+00  6.8739874964903258e+00  6.8656735747666451e+00  6.8570996897050653e+00  6.8482577477459214e+00  6.8391394182122998e+00  6.8297361279848676e+00  6.8200390562078663e+00  6.8100391290432931e+00  6.7997270144919231e+00  6.7890931173017988e+00  6.7781275739866569e+00  6.7668202479790400e+00  6.7551607249450489e+00  6.7431383082901766e+00  6.7307420148883796e+00  6.7179605710693187e+00  6.7047824089018144e+00  6.6911956628148124e+00  6.6771881666006649e+00  6.6627474508492970e+00  6.6478607408658359e+00  6.6325149551285545e+00  6.6166967043485432e+00  6.6003922911974380e+00  6.5835877107746752e+00  6.5662686518912263e+00  6.5484204992527122e+00  6.5300283366309095e+00  6.5110769511192848e+00  6.4915508385751135e+00  6.4714342103581100e+00  6.4507110014831630e+00  6.4293648803129555e+00  6.4073792599247232e+00  6.3847373112943178e+00  6.3614219784500463e+00  6.3374159957584437e+00  6.3127019075140964e+00  6.2872620900159957e+00  6.2610787763235098e+00  6.2341340838958859e+00  6.2064100453301467e+00  6.1778886424233859e+00  6.1485518437963798e+00  6.1183816463264131e+00  6.0873601206477161e+00  6.0554694609880064e+00  6.0226920396189740e+00  5.9890104662070254e+00  5.9544076523576646e+00  5.9188668816525247e+00  5.8823718854814970e+00  5.8449069249735484e+00  5.8064568793277473e+00  5.7670073408404265e+00  5.7265447169144288e+00  5.6850563393211502e+00  5.6425305809649799e+00  5.5989569803713266e+00  5.5543263740828870e+00  5.5086310371028979e+00  5.4618648314670608e+00  5.4140233629567094e+00  5.3651041458825288e+00  5.3151067757691601e+00  5.2640331096546209e+00  5.2118874535826247e+00  5.1586767567088270e+00  5.1044108112618476e+00  5.0491024573951435e+00  4.9927677917345576e+00  4.9354263781680281e+00  4.8771014591375028e+00  4.8178201653788788e+00  4.7576137217146020e+00  4.6965176461378633e+00  4.6345719390402911e+00  4.5718212590325846e+00  4.5083150813966624e+00  4.4441078347988991e+00  4.3792590114995225e+00  4.3138332459288264e+00  4.2479003561858510e+00  4.1815353427715882e+00  4.1148183387223378e+00  4.0478345052877067e+00  3.9806738674323574e+00  3.9134310837625010e+00  3.8462051460181388e+00  3.7790990040585606e+00  3.7122191133253732e+00  3.6456749031095499e+00  3.5795781655815793e+00  3.5140423674568457e+00  3.4491818883345031e+00  3.3851111921202675e+00  3.3219439404526567e+00  3.2597920596075189e+00  3.1987647748463073e+00  3.1389676284721832e+00  3.0805014998273186e+00  3.0234616469653872e+00  2.9679367906346799e+00  2.9140082613985170e+00  2.8617492301210929e+00  2.8112240406203268e+00  2.7624876610452782e+00  2.7155852675384651e+00  2.6705519701086815e+00  2.6274126865305503e+00  2.5861821657019468e+00  2.5468651574501426e+00  2.5094567215074712e+00  2.4739426644904672e+00  2.4403000903968364e+00  2.4084980475240392e+00  2.3784982529030665e+00  2.3502558743671327e+00  2.3237203502208112e+00  2.2988362270760