<?xml version="1.0"?>
<VTKFile type="UnstructuredGrid"  version="0.1"  >
<UnstructuredGrid>
<Piece  NumberOfPoints="1001" NumberOfCells="1000">
<Points>
<DataArray  type="Float64"  NumberOfComponents="3"  format="ascii">0 0 0  0.001 0 0  0.002 0 0  0.003 0 0  0.004 0 0  0.005 0 0  0.006 0 0  0.007 0 0  0.008 0 0  0.008999999999999999 0 0  0.01 0 0  0.011 0 0  0.012 0 0  0.013 0 0  0.014 0 0  0.015 0 0  0.016 0 0  0.017 0 0  0.018 0 0  0.019 0 0  0.02 0 0  0.021 0 0  0.022 0 0  0.023 0 0  0.024 0 0  0.025 0 0  0.026 0 0  0.027 0 0  0.028 0 0  0.029 0 0  0.03 0 0  0.031 0 0  0.032 0 0  0.033 0 0  0.034 0 0  0.035 0 0  0.036 0 0  0.037 0 0  0.038 0 0  0.039 0 0  0.04 0 0  0.041 0 0  0.042 0 0  0.043 0 0  0.044 0 0  0.045 0 0  0.046 0 0  0.047 0 0  0.048 0 0  0.049 0 0  0.05 0 0  0.051 0 0  0.052 0 0  0.053 0 0  0.054 0 0  0.055 0 0  0.056 0 0  0.057 0 0  0.058 0 0  0.059 0 0  0.06 0 0  0.061 0 0  0.062 0 0  0.063 0 0  0.064 0 0  0.065 0 0  0.066 0 0  0.067 0 0  0.068 0 0  0.06900000000000001 0 0  0.07000000000000001 0 0  0.07099999999999999 0 0  0.07199999999999999 0 0  0.073 0 0  0.074 0 0  0.075 0 0  0.076 0 0  0.077 0 0  0.078 0 0  0.079 0 0  0.08 0 0  0.081 0 0  0.082 0 0  0.083 0 0  0.08400000000000001 0 0  0.08500000000000001 0 0  0.08599999999999999 0 0  0.08699999999999999 0 0  0.08799999999999999 0 0  0.089 0 0  0.09 0 0  0.091 0 0  0.092 0 0  0.093 0 0  0.094 0 0  0.095 0 0  0.096 0 0  0.097 0 0  0.098 0 0  0.099 0 0  0.1 0 0  0.101 0 0  0.102 0 0  0.103 0 0  0.104 0 0  0.105 0 0  0.106 0 0  0.107 0 0  0.108 0 0  0.109 0 0  0.11 0 0  0.111 0 0  0.112 0 0  0.113 0 0  0.114 0 0  0.115 0 0  0.116 0 0  0.117 0 0  0.118 0 0  0.119 0 0  0.12 0 0  0.121 0 0  0.122 0 0  0.123 0 0  0.124 0 0  0.125 0 0  0.126 0 0  0.127 0 0  0.128 0 0  0.129 0 0  0.13 0 0  0.131 0 0  0.132 0 0  0.133 0 0  0.134 0 0  0.135 0 0  0.136 0 0  0.137 0 0  0.138 0 0  0.139 0 0  0.14 0 0  0.141 0 0  0.142 0 0  0.143 0 0  0.144 0 0  0.145 0 0  0.146 0 0  0.147 0 0  0.148 0 0  0.149 0 0  0.15 0 0  0.151 0 0  0.152 0 0  0.153 0 0  0.154 0 0  0.155 0 0  0.156 0 0  0.157 0 0  0.158 0 0  0.159 0 0  0.16 0 0  0.161 0 0  0.162 0 0  0.163 0 0  0.164 0 0  0.165 0 0  0.166 0 0  0.167 0 0  0.168 0 0  0.169 0 0  0.17 0 0  0.171 0 0  0.172 0 0  0.173 0 0  0.174 0 0  0.175 0 0  0.176 0 0  0.177 0 0  0.178 0 0  0.179 0 0  0.18 0 0  0.181 0 0  0.182 0 0  0.183 0 0  0.184 0 0  0.185 0 0  0.186 0 0  0.187 0 0  0.188 0 0  0.189 0 0  0.19 0 0  0.191 0 0  0.192 0 0  0.193 0 0  0.194 0 0  0.195 0 0  0.196 0 0  0.197 0 0  0.198 0 0  0.199 0 0  0.2 0 0  0.201 0 0  0.202 0 0  0.203 0 0  0.204 0 0  0.205 0 0  0.206 0 0  0.207 0 0  0.208 0 0  0.209 0 0  0.21 0 0  0.211 0 0  0.212 0 0  0.213 0 0  0.214 0 0  0.215 0 0  0.216 0 0  0.217 0 0  0.218 0 0  0.219 0 0  0.22 0 0  0.221 0 0  0.222 0 0  0.223 0 0  0.224 0 0  0.225 0 0  0.226 0 0  0.227 0 0  0.228 0 0  0.229 0 0  0.23 0 0  0.231 0 0  0.232 0 0  0.233 0 0  0.234 0 0  0.235 0 0  0.236 0 0  0.237 0 0  0.238 0 0  0.239 0 0  0.24 0 0  0.241 0 0  0.242 0 0  0.243 0 0  0.244 0 0  0.245 0 0  0.246 0 0  0.247 0 0  0.248 0 0  0.249 0 0  0.25 0 0  0.251 0 0  0.252 0 0  0.253 0 0  0.254 0 0  0.255 0 0  0.256 0 0  0.257 0 0  0.258 0 0  0.259 0 0  0.26 0 0  0.261 0 0  0.262 0 0  0.263 0 0  0.264 0 0  0.265 0 0  0.266 0 0  0.267 0 0  0.268 0 0  0.269 0 0  0.27 0 0  0.271 0 0  0.272 0 0  0.273 0 0  0.274 0 0  0.275 0 0  0.276 0 0  0.277 0 0  0.278 0 0  0.279 0 0  0.28 0 0  0.281 0 0  0.282 0 0  0.283 0 0  0.284 0 0  0.285 0 0  0.286 0 0  0.287 0 0  0.288 0 0  0.289 0 0  0.29 0 0  0.291 0 0  0.292 0 0  0.293 0 0  0.294 0 0  0.295 0 0  0.296 0 0  0.297 0 0  0.298 0 0  0.299 0 0  0.3 0 0  0.301 0 0  0.302 0 0  0.303 0 0  0.304 0 0  0.305 0 0  0.306 0 0  0.307 0 0  0.308 0 0  0.309 0 0  0.31 0 0  0.311 0 0  0.312 0 0  0.313 0 0  0.314 0 0  0.315 0 0  0.316 0 0  0.317 0 0  0.318 0 0  0.319 0 0  0.32 0 0  0.321 0 0  0.322 0 0  0.323 0 0  0.324 0 0  0.325 0 0  0.326 0 0  0.327 0 0  0.328 0 0  0.329 0 0  0.33 0 0  0.331 0 0  0.332 0 0  0.333 0 0  0.334 0 0  0.335 0 0  0.336 0 0  0.337 0 0  0.338 0 0  0.339 0 0  0.34 0 0  0.341 0 0  0.342 0 0  0.343 0 0  0.344 0 0  0.345 0 0  0.346 0 0  0.347 0 0  0.348 0 0  0.349 0 0  0.35 0 0  0.351 0 0  0.352 0 0  0.353 0 0  0.354 0 0  0.355 0 0  0.356 0 0  0.357 0 0  0.358 0 0  0.359 0 0  0.36 0 0  0.361 0 0  0.362 0 0  0.363 0 0  0.364 0 0  0.365 0 0  0.366 0 0  0.367 0 0  0.368 0 0  0.369 0 0  0.37 0 0  0.371 0 0  0.372 0 0  0.373 0 0  0.374 0 0  0.375 0 0  0.376 0 0  0.377 0 0  0.378 0 0  0.379 0 0  0.38 0 0  0.381 0 0  0.382 0 0  0.383 0 0  0.384 0 0  0.385 0 0  0.386 0 0  0.387 0 0  0.388 0 0  0.389 0 0  0.39 0 0  0.391 0 0  0.392 0 0  0.393 0 0  0.394 0 0  0.395 0 0  0.396 0 0  0.397 0 0  0.398 0 0  0.399 0 0  0.4 0 0  0.401 0 0  0.402 0 0  0.403 0 0  0.404 0 0  0.405 0 0  0.406 0 0  0.407 0 0  0.408 0 0  0.409 0 0  0.41 0 0  0.411 0 0  0.412 0 0  0.413 0 0  0.414 0 0  0.415 0 0  0.416 0 0  0.417 0 0  0.418 0 0  0.419 0 0  0.42 0 0  0.421 0 0  0.422 0 0  0.423 0 0  0.424 0 0  0.425 0 0  0.426 0 0  0.427 0 0  0.428 0 0  0.429 0 0  0.43 0 0  0.431 0 0  0.432 0 0  0.433 0 0  0.434 0 0  0.435 0 0  0.436 0 0  0.437 0 0  0.438 0 0  0.439 0 0  0.44 0 0  0.441 0 0  0.442 0 0  0.443 0 0  0.444 0 0  0.445 0 0  0.446 0 0  0.447 0 0  0.448 0 0  0.449 0 0  0.45 0 0  0.451 0 0  0.452 0 0  0.453 0 0  0.454 0 0  0.455 0 0  0.456 0 0  0.457 0 0  0.458 0 0  0.459 0 0  0.46 0 0  0.461 0 0  0.462 0 0  0.463 0 0  0.464 0 0  0.465 0 0  0.466 0 0  0.467 0 0  0.468 0 0  0.469 0 0  0.47 0 0  0.471 0 0  0.472 0 0  0.473 0 0  0.474 0 0  0.475 0 0  0.476 0 0  0.477 0 0  0.478 0 0  0.479 0 0  0.48 0 0  0.481 0 0  0.482 0 0  0.483 0 0  0.484 0 0  0.485 0 0  0.486 0 0  0.487 0 0  0.488 0 0  0.489 0 0  0.49 0 0  0.491 0 0  0.492 0 0  0.493 0 0  0.494 0 0  0.495 0 0  0.496 0 0  0.497 0 0  0.498 0 0  0.499 0 0  0.5 0 0  0.501 0 0  0.502 0 0  0.503 0 0  0.504 0 0  0.505 0 0  0.506 0 0  0.507 0 0  0.508 0 0  0.509 0 0  0.51 0 0  0.511 0 0  0.512 0 0  0.513 0 0  0.514 0 0  0.515 0 0  0.516 0 0  0.517 0 0  0.518 0 0  0.519 0 0  0.52 0 0  0.521 0 0  0.522 0 0  0.523 0 0  0.524 0 0  0.525 0 0  0.526 0 0  0.527 0 0  0.528 0 0  0.529 0 0  0.53 0 0  0.531 0 0  0.532 0 0  0.533 0 0  0.534 0 0  0.535 0 0  0.536 0 0  0.537 0 0  0.538 0 0  0.539 0 0  0.54 0 0  0.541 0 0  0.542 0 0  0.543 0 0  0.544 0 0  0.545 0 0  0.546 0 0  0.547 0 0  0.548 0 0  0.549 0 0  0.55 0 0  0.551 0 0  0.552 0 0  0.553 0 0  0.554 0 0  0.555 0 0  0.556 0 0  0.5570000000000001 0 0  0.5580000000000001 0 0  0.5590000000000001 0 0  0.5600000000000001 0 0  0.5610000000000001 0 0  0.5620000000000001 0 0  0.5629999999999999 0 0  0.5639999999999999 0 0  0.5649999999999999 0 0  0.5659999999999999 0 0  0.5669999999999999 0 0  0.5679999999999999 0 0  0.569 0 0  0.57 0 0  0.571 0 0  0.572 0 0  0.573 0 0  0.574 0 0  0.575 0 0  0.576 0 0  0.577 0 0  0.578 0 0  0.579 0 0  0.58 0 0  0.581 0 0  0.582 0 0  0.583 0 0  0.584 0 0  0.585 0 0  0.586 0 0  0.587 0 0  0.588 0 0  0.589 0 0  0.59 0 0  0.591 0 0  0.592 0 0  0.593 0 0  0.594 0 0  0.595 0 0  0.596 0 0  0.597 0 0  0.598 0 0  0.599 0 0  0.6 0 0  0.601 0 0  0.602 0 0  0.603 0 0  0.604 0 0  0.605 0 0  0.606 0 0  0.607 0 0  0.608 0 0  0.609 0 0  0.61 0 0  0.611 0 0  0.612 0 0  0.613 0 0  0.614 0 0  0.615 0 0  0.616 0 0  0.617 0 0  0.618 0 0  0.619 0 0  0.62 0 0  0.621 0 0  0.622 0 0  0.623 0 0  0.624 0 0  0.625 0 0  0.626 0 0  0.627 0 0  0.628 0 0  0.629 0 0  0.63 0 0  0.631 0 0  0.632 0 0  0.633 0 0  0.634 0 0  0.635 0 0  0.636 0 0  0.637 0 0  0.638 0 0  0.639 0 0  0.64 0 0  0.641 0 0  0.642 0 0  0.643 0 0  0.644 0 0  0.645 0 0  0.646 0 0  0.647 0 0  0.648 0 0  0.649 0 0  0.65 0 0  0.651 0 0  0.652 0 0  0.653 0 0  0.654 0 0  0.655 0 0  0.656 0 0  0.657 0 0  0.658 0 0  0.659 0 0  0.66 0 0  0.661 0 0  0.662 0 0  0.663 0 0  0.664 0 0  0.665 0 0  0.666 0 0  0.667 0 0  0.668 0 0  0.669 0 0  0.67 0 0  0.671 0 0  0.672 0 0  0.673 0 0  0.674 0 0  0.675 0 0  0.676 0 0  0.677 0 0  0.678 0 0  0.679 0 0  0.68 0 0  0.681 0 0  0.6820000000000001 0 0  0.6830000000000001 0 0  0.6840000000000001 0 0  0.6850000000000001 0 0  0.6860000000000001 0 0  0.6870000000000001 0 0  0.6879999999999999 0 0  0.6889999999999999 0 0  0.6899999999999999 0 0  0.6909999999999999 0 0  0.6919999999999999 0 0  0.6929999999999999 0 0  0.694 0 0  0.695 0 0  0.696 0 0  0.697 0 0  0.698 0 0  0.699 0 0  0.7 0 0  0.701 0 0  0.702 0 0  0.703 0 0  0.704 0 0  0.705 0 0  0.706 0 0  0.707 0 0  0.708 0 0  0.709 0 0  0.71 0 0  0.711 0 0  0.712 0 0  0.713 0 0  0.714 0 0  0.715 0 0  0.716 0 0  0.717 0 0  0.718 0 0  0.719 0 0  0.72 0 0  0.721 0 0  0.722 0 0  0.723 0 0  0.724 0 0  0.725 0 0  0.726 0 0  0.727 0 0  0.728 0 0  0.729 0 0  0.73 0 0  0.731 0 0  0.732 0 0  0.733 0 0  0.734 0 0  0.735 0 0  0.736 0 0  0.737 0 0  0.738 0 0  0.739 0 0  0.74 0 0  0.741 0 0  0.742 0 0  0.743 0 0  0.744 0 0  0.745 0 0  0.746 0 0  0.747 0 0  0.748 0 0  0.749 0 0  0.75 0 0  0.751 0 0  0.752 0 0  0.753 0 0  0.754 0 0  0.755 0 0  0.756 0 0  0.757 0 0  0.758 0 0  0.759 0 0  0.76 0 0  0.761 0 0  0.762 0 0  0.763 0 0  0.764 0 0  0.765 0 0  0.766 0 0  0.767 0 0  0.768 0 0  0.769 0 0  0.77 0 0  0.771 0 0  0.772 0 0  0.773 0 0  0.774 0 0  0.775 0 0  0.776 0 0  0.777 0 0  0.778 0 0  0.779 0 0  0.78 0 0  0.781 0 0  0.782 0 0  0.783 0 0  0.784 0 0  0.785 0 0  0.786 0 0  0.787 0 0  0.788 0 0  0.789 0 0  0.79 0 0  0.791 0 0  0.792 0 0  0.793 0 0  0.794 0 0  0.795 0 0  0.796 0 0  0.797 0 0  0.798 0 0  0.799 0 0  0.8 0 0  0.801 0 0  0.802 0 0  0.803 0 0  0.804 0 0  0.805 0 0  0.806 0 0  0.8070000000000001 0 0  0.8080000000000001 0 0  0.8090000000000001 0 0  0.8100000000000001 0 0  0.8110000000000001 0 0  0.8120000000000001 0 0  0.8129999999999999 0 0  0.8139999999999999 0 0  0.8149999999999999 0 0  0.8159999999999999 0 0  0.8169999999999999 0 0  0.8179999999999999 0 0  0.819 0 0  0.82 0 0  0.821 0 0  0.822 0 0  0.823 0 0  0.824 0 0  0.825 0 0  0.826 0 0  0.827 0 0  0.828 0 0  0.829 0 0  0.83 0 0  0.831 0 0  0.832 0 0  0.833 0 0  0.834 0 0  0.835 0 0  0.836 0 0  0.837 0 0  0.838 0 0  0.839 0 0  0.84 0 0  0.841 0 0  0
[...]
<PointData  Scalars="f_20-0"> 
<DataArray  type="Float64"  Name="f_20-0"  format="ascii">2.1313606576151107e+00  2.1318945770064621e+00  2.1334987925496707e+00  2.1361806583413756e+00  2.1399523708393571e+00  2.1448308771539519e+00  2.1508377444024731e+00  2.1579989879991825e+00  2.1663448563273913e+00  2.1759095689530752e+00  2.1867310054233546e+00  2.1988503417800591e+00  2.2123116322382024e+00  2.2271613340571874e+00  2.2434477744882395e+00  2.2612205598249475e+00  2.2805299280121210e+00  2.3014260479633002e+00  2.3239582706625930e+00  2.3481743392250403e+00  2.3741195672836968e+00  2.4018359972630599e+00  2.4313615521727541e+00  2.4627291963860167e+00  2.4959661223242762e+00  2.5310929809264189e+00  2.5681231741297270e+00  2.6070622272455504e+00  2.6479072580287788e+00  2.6906465574126210e+00  2.7352592943521294e+00  2.7817153540832451e+00  2.8299753154934151e+00  2.8799905693847832e+00  2.9317035753837803e+00  2.9850482513119547e+00  3.0399504851752934e+00  3.0963287567247515e+00  3.1540948529275332e+00  3.2131546597628153e+00  3.2734090115672760e+00  3.3347545787082926e+00  3.3970847746174822e+00  3.4602906640998459e+00  3.5242618562437737e+00  3.5888873670773007e+00  3.6540564392225723e+00  3.7196593080718263e+00  3.7855879063320539e+00  3.8517365010640794e+00  3.9180022594951156e+00  3.9842857418512714e+00  4.0504913211961275e+00  4.1165275317492540e+00  4.1823073483856428e+00  4.2477484009871151e+00  4.3127731280437533e+00  4.3773088744074737e+00  4.4412879384065995e+00  4.5046475736665634e+00  4.5673299509760659e+00  4.6292820854169481e+00  4.6904557337652548e+00  4.7508072668932559e+00  4.8102975215777946e+00  4.8688916357666425e+00  4.9265588709855548e+00  4.9832724251967049e+00  5.0390092390528345e+00  5.0937497981381235e+00  5.1474779334514826e+00  5.2001806220741784e+00  5.2518477896736631e+00  5.3024721162302368e+00  5.3520488461329965e+00  5.4005756035760788e+00  5.4480522139944529e+00  5.4944805321093444e+00  5.5398642770054742e+00  5.5842088745335978e+00  5.6275213072213424e+00  5.6698099717807864e+00  5.7110845442215581e+00  5.7513558525112902e+00  5.7906357566701958e+00  5.8289370361414319e+00  5.8662732842429506e+00  5.9026588094782610e+00  5.9381085434618930e+00  5.9726379551998141e+00  6.0062629714541114e+00  6.0389999029147345e+00  6.0708653758980926e+00  6.1018762692921227e+00  6.1320496564698663e+00  6.1614027518979286e+00  6.1899528621720847e+00  6.2177173412195854e+00  6.2447135494158914e+00  6.2709588163725067e+00  6.2964704071620599e+00  6.3212654917565825e+00  6.3453611174650453e+00  6.3687741841662344e+00  6.3915214221432013e+00  6.4136193723354964e+00  6.4350843688352279e+00  6.4559325234625611e+00  6.4761797122656084e+00  6.4958415637987068e+00  6.5149334490417576e+00  6.5334704728316755e+00  6.5514674666849899e+00  6.5689389828983176e+00  6.5858992898207100e+00  6.6023623681988051e+00  6.6183419085022894e+00  6.6338513091434566e+00  6.6489036755104864e+00  6.6635118197396972e+00  6.6776882611572157e+00  6.6914452273255405e+00  6.7047946556350455e+00  6.7177481953849005e+00  6.7303172103019744e+00  6.7425127814501238e+00  6.7543457104859357e+00  6.7658265232202552e+00  6.7769654734481310e+00  6.7877725470126480e+00  6.7982574660709405e+00  6.8084296935331849e+00  6.8182984376478579e+00  6.8278726567086974e+00  6.8371610638609228e+00  6.8461721319861644e+00  6.8549140986474475e+00  6.8633949710770894e+00  6.8716225311920915e+00  6.8796043406228762e+00  6.8873477457426926e+00  6.8948598826861849e+00  6.9021476823467136e+00  6.9092178753431863e+00  6.9160769969480400e+00  6.9227313919689406e+00  6.9291872195776190e+00  6.9354504580800134e+00  6.9415269096225680e+00  6.9474222048302368e+00  6.9531418073723072e+00  6.9586910184526847e+00  6.9640749812218479e+00  6.9692986851080496e+00  6.9743669700658595e+00  6.9792845307404399e+00  6.9840559205463535e+00  6.9886855556599894e+00  6.9931777189250210e+00  6.9975365636705043e+00  7.0017661174415293e+00  7.0058702856425361e+00  7.0098528550935519e+00  7.0137174974998695e+00  7.0174677728357242e+00  7.0211071326428112e+00  7.0246389232444537e+00  7.0280663888764687e+00  7.0313926747357787e+00  7.0346208299479915e+00  7.0377538104551505e+00  7.0407944818249888e+00  7.0437456219830246e+00  7.0466099238689583e+00  7.0493899980187633e+00  7.0520883750739616e+00  7.0547075082195745e+00  7.0572497755523145e+00  7.0597174823804494e+00  7.0621128634570063e+00  7.0644380851476978e+00  7.0666952475352645e+00  7.0688863864616422e+00  7.0710134755095790e+00  7.0730784279251235e+00  7.0750830984825805e+00  7.0770292852933467e+00  7.0789187315601509e+00  7.0807531272781050e+00  7.0825341108840245e+00  7.0842632708554358e+00  7.0859421472606208e+00  7.0875722332610875e+00  7.0891549765677899e+00  7.0906917808524348e+00  7.0921840071151134e+00  7.0936329750095499e+00  7.0950399641272019e+00  7.0964062152413927e+00  7.0977329315126596e+00  7.0990212796564833e+00  7.1002723910745056e+00  7.1014873629503228e+00  7.1026672593109410e+00  7.1038131120549277e+00  7.1049259219482437e+00  7.1060066595888198e+00  7.1070562663407175e+00  7.1080756552389470e+00  7.1090657118657248e+00  7.1100272951991474e+00  7.1109612384350855e+00  7.1118683497831867e+00  7.1127494132377151e+00  7.1136051893241099e+00  7.1144364158219631e+00  7.1152438084651761e+00  7.1160280616200460e+00  7.1167898489419228e+00  7.1175298240111680e+00  7.1182486209490445e+00  7.1189468550141877e+00  7.1196251231802714e+00  7.1202840046954812e+00  7.1209240616243328e+00  7.1215458393724758e+00  7.1221498671949419e+00  7.1227366586884404e+00  7.1233067122681568e+00  7.1238605116295899e+00  7.1243985261958844e+00  7.1249212115511353e+00  7.1254290098601185e+00  7.1259223502748510e+00  7.1264016493284661e+00  7.1268673113167376e+00  7.1273197286677137e+00  7.1277592822997971e+00  7.1281863419686653e+00  7.1286012666033862e+00  7.1290044046320746e+00  7.1293960942974097e+00  7.1297766639623772e+00  7.1301464324064918e+00  7.1305057091128905e+00  7.1308547945464706e+00  7.1311939804234887e+00  7.1315235499727772e+00  7.1318437781889417e+00  7.1321549320777340e+00  7.1324572708938696e+00  7.1327510463715367e+00  7.1330365029478182e+00  7.1333138779792700e+00  7.1335834019518396e+00  7.1338452986843874e+00  7.1340997855259545e+00  7.1343470735470333e+00  7.1345873677249863e+00  7.1348208671238140e+00  7.1350477650684763e+00  7.1352682493138726e+00  7.1354825022087365e+00  7.1356907008545241e+00  7.1358930172595212e+00  7.1360896184882643e+00  7.1362806668064520e+00  7.1364663198214950e+00  7.1366467306188195e+00  7.1368220478940598e+00  7.1369924160812861e+00  7.1371579754773746e+00  7.1373188623626609e+00  7.1374752091179499e+00  7.1376271443380404e+00  7.1377747929418609e+00  7.1379182762792937e+00  7.1380577122348408e+00  7.1381932153281786e+00  7.1383248968117137e+00  7.1384528647652719e+00  7.1385772241879355e+00  7.1386980770871880e+00  7.1388155225653840e+00  7.1389296569036915e+00  7.1390405736435225e+00  7.1391483636655924e+00  7.1392531152666008e+00  7.1393549142337003e+00  7.1394538439167237e+00  7.1395499852983288e+00  7.1396434170620564e+00  7.1397342156583896e+00  7.1398224553688845e+00  7.1399082083684240e+00  7.1399915447856337e+00  7.1400725327615415e+00  7.1401512385065216e+00  7.1402277263555636e+00  7.1403020588219670e+00  7.1403742966494042e+00  7.1404444988625411e+00  7.1405127228161245e+00  7.1405790242426779e+00  7.1406434572988084e+00  7.1407060746101472e+00  7.1407669273150107e+00  7.1408260651067836e+00  7.1408835362750853e+00  7.1409393877457301e+00  7.1409936651195425e+00  7.1410464127100495e+00  7.1410976735800897e+00  7.1411474895773503e+00  7.1411959013688948e+00  7.1412429484746980e+00  7.1412886693002013e+00  7.1413331011679375e+00  7.1413762803482559e+00  7.1414182420891539e+00  7.1414590206452440e+00  7.1414986493059285e+00  7.1415371604227058e+00  7.1415745854357473e+00  7.1416109548996962e+00  7.1416462985086993e+00  7.1416806451207782e+00  7.1417140227814544e+00  7.1417464587467236e+00  7.1417779795053704e+00  7.1418086108006431e+00  7.1418383776513146e+00  7.1418673043721244e+00  7.1418954145936775e+00  7.1419227312817304e+00  7.1419492767559625e+00  7.1419750727081945e+00  7.1420001402200954e+00  7.1420244997803932e+00  7.1420481713015720e+00  7.1420711741361256e+00  7.1420935270923298e+00  7.1421152484495716e+00  7.1421363559732480e+00  7.1421568669292297e+00  7.1421767980979372e+00  7.1421961657879978e+00  7.1422149858495176e+00  7.1422332736869896e+00  7.1422510442718288e+00  7.1422683121545445e+00  7.1422850914765883e+00  7.1423013959818480e+00  7.1423172390278316e+00  7.1423326335965189e+00  7.1423475923049189e+00  7.1423621274153328e+00  7.1423762508453068e+00  7.1423899741773269e+00  7.1424033086682304e+00  7.1424162652583449e+00  7.1424288545803876e+00  7.1424410869680912e+00  7.1424529724646089e+00  7.1424645208306607e+00  7.1424757415524738e+00  7.1424866438494750e+00  7.1424972366817912e+00  7.1425075287575135e+00  7.1425175285397771e+00  7.1425272442536327e+00  7.1425366838927262e+00  7.1425458552257881e+00  7.1425547658029496e+00  7.1425634229618646e+00  7.1425718338336770e+00  7.1425800053488091e+00  7.1425879442425959e+00  7.1425956570607436e+00  7.1426031501646623e+00  7.1426104297366253e+00  7.1426175017847973e+00  7.1426243721481049e+00  7.1426310465009966e+00  7.1426375303580460e+00  7.1426438290784340e+00  7.1426499478703054e+00  7.1426558917950054e+00  7.1426616657711941e+00  7.1426672745788444e+00  7.1426727228631322e+00  7.1426780151382125e+00  7.1426831557908939e+00  7.1426881490842034e+00  7.1426929991608628e+00  7.1426977100466535e+00  7.1427022856537068e+00  7.1427067297836642e+00  7.1427110461307999e+00  7.1427152382850103e+00  7.1427193097347548e+00  7.1427232638698834e+00  7.1427271039844040e+00  7.1427308332791766e+00  7.1427344548645042e+00  7.1427379717626849e+00  7.1427413869104672e+00  7.1427447031614513e+00  7.1427479232884075e+00  7.1427510499855531e+00  7.1427540858707363e+00  7.1427570334875785e+00  7.1427598953075462e+00  7.1427626737319789e+00  7.1427653710940371e+00  7.1427679896606096e+00  7.1427705316341692e+00  7.1427729991545670e+00  7.1427753943007781e+00  7.1427777190925976e+00  7.1427799754922967e+00  7.1427821654062145e+00  7.1427842906863228e+00  7.1427863531317266e+00  7.1427883544901407e+00  7.1427902964593191e+00  7.1427921806884171e+00  7.1427940087793598e+00  7.1427957822881361e+00  7.1427975027260668e+00  7.1427991715610348e+00  7.1428007902186827e+00  7.1428023600835617e+00  7.1428038825002655e+00  7.1428053587745248e+00  7.1428067901742516e+00  7.1428081779305783e+00  7.1428095232388511e+00  7.1428108272595940e+00  7.1428120911194446e+00  7.1428133159120746e+00  7.1428145026990482e+00  7.1428156525106967e+00  7.1428167663469333e+00  7.1428178451780546e+00  7.1428188899455201e+00  7.1428199015627021e+00  7.1428208809156137e+00  7.1428218288636112e+00  7.1428227462400686e+00  7.1428236338530482e+00  7.1428244924859250e+00  7.1428253228980214e+00  7.1428261258251782e+00  7.1428269019803432e+00  7.1428276520541267e+00  7.1428283767153333e+00  7.1428290766114815e+00  7.1428297523692992e+00  7.1428304045952107e+00  7.1428310338757930e+00  7.1428316407782271e+00  7.1428322258507313e+00  7.1428327896229709e+00  7.1428333326064548e+00  7.1428338552949215e+00  7.1428343581647118e+00  7.1428348416751124e+00  7.1428353062687044e+00  7.1428357523716803e+00  7.1428361803941653e+00  7.1428365907305045e+00  7.1428369837595644e+00  7.1428373598449886e+00  7.1428377193354740e+00  7.1428380625650165e+00  7.1428383898531358e+00  7.1428387015051182e+00  7.1428389978122313e+00  7.1428392790519100e+00  7.1428395454879734e+00  7.1428397973707929e+00  7.1428400349374668e+00  7.1428402584119999e+00  7.1428404680054296e+00  7.1428406639159974e+00  7.1428408463292596e+00  7.1428410154182354e+00  7.1428411713435125e+00  7.1428413142533547e+00  7.1428414442838042e+00  7.1428415615587726e+00  7.1428416661901268e+00  7.1428417582777595e+00  7.1428418379096463e+00  7.1428419051619292e+00  7.1428419600989397e+00  7.1428420027732615e+00  7.1428420332257589e+00  7.1428420514855961e+00  7.1428420575702640e+00  7.1428420514855926e+00  7.1428420332257563e+00  7.1428420027732598e+00  7.1428419600989370e+00  7.1428419051619265e+00  7.1428418379096446e+00  7.1428417582777577e+00  7.1428416661901286e+00  7.1428415615587744e+00  7.1428414442838015e+00  7.1428413142533511e+00  7.1428411713435072e+00  7.1428410154182300e+00  7.1428408463292534e+00  7.1428406639159920e+00  7.1428404680054260e+00  7.1428402584119972e+00  7.1428400349374659e+00  7.1428397973707876e+00  7.1428395454879690e+00  7.1428392790519073e+00  7.1428389978122269e+00  7.1428387015051156e+00  7.1428383898531305e+00  7.1428380625650103e+00  7.1428377193354713e+00  7.1428373598449841e+00  7.1428369837595600e+00  7.1428365907305027e+00  7.1428361803941618e+00  7.1428357523716812e+00  7.1428353062687062e+00  7.1428348416751177e+00  7.1428343581647162e+00  7.1428338552949251e+00  7.1428333326064548e+00  7.1428327896229717e+00  7.1428322258507322e+00  7.1428316407782289e+00  7.1428310338757930e+00  7.1428304045952107e+00  7.1428297523693010e+00  7.1428290766114850e+00  7.1428283767153369e+00  7.1428276520541276e+00  7.1428269019803423e+00  7.1428261258251764e+00  7.1428253228980223e+00  7.1428244924859277e+00  7.1428236338530473e+00  7.1428227462400704e+00  7.1428218288636129e+00  7.1428208809156155e+00  7.1428199015627030e+00  7.1428188899455183e+00  7.1428178451780520e+00  7.1428167663469315e+00  7.1428156525106967e+00  7.1428145026990473e+00  7.1428133159120719e+00  7.1428120911194419e+00  7.1428108272595896e+00  7.1428095232388475e+00  7.1428081779305765e+00  7.1428067901742498e+00  7.1428053587745231e+00  7.1428038825002629e+00  7.1428023600835582e+00  7.1428007902186783e+00  7.1427991715610331e+00  7.1427975027260651e+00  7.1427957822881334e+00  7.1427940087793571e+00  7.1427921806884171e+00  7.1427902964593200e+00  7.1427883544901452e+00  7.1427863531317302e+00  7.1427842906863264e+00  7.1427821654062162e+00  7.1427799754922976e+00  7.1427777190926003e+00  7.1427753943007799e+00  7.1427729991545705e+00  7.1427705316341719e+00  7.1427679896606113e+00  7.1427653710940362e+00  7.1427626737319780e+00  7.1427598953075453e+00  7.1427570334875767e+00  7.1427540858707346e+00  7.1427510499855504e+00  7.1427479232884075e+00  7.1427447031614495e+00  7.1427413869104655e+00  7.1427379717626840e+00  7.1427344548645042e+00  7.1427308332791783e+00  7.1427271039844085e+00  7.1427232638698861e+00  7.1427193097347601e+00  7.1427152382850165e+00  7.1427110461308025e+00  7.1427067297836695e+00  7.1427022856537112e+00  7.1426977100466589e+00  7.1426929991608645e+00  7.1426881490842025e+00  7.1426831557908921e+00  7.1426780151382108e+00  7.1426727228631295e+00  7.1426672745788418e+00  7.1426616657711905e+00  7.1426558917950027e+00  7.1426499478703036e+00  7.1426438290784340e+00  7.1426375303580487e+00  7.1426310465009992e+00  7.1426243721481066e+00  7.1426175017847999e+00  7.1426104297366297e+00  7.1426031501646641e+00  7.1425956570607436e+00  7.1425879442425968e+00  7.1425800053488100e+00  7.1425718338336761e+00  7.1425634229618629e+00  7.1425547658029478e+00  7.1425458552257863e+00  7.1425366838927218e+00  7.1425272442536283e+00  7.1425175285397744e+00  7.1425075287575099e+00  7.1424972366817876e+00  7.1424866438494750e+00  7.1424757415524729e+00  7.1424645208306607e+00  7.1424529724646098e+00  7.1424410869680939e+00  7.1424288545803885e+00  7.1424162652583467e+00  7.1424033086682304e+00  7.1423899741773287e+00  7.1423762508453086e+00  7.1423621274153364e+00  7.1423475923049251e+00  7.1423326335965225e+00  7.1423172390278342e+00  7.1423013959818507e+00  7.1422850914765901e+00  7.1422683121545454e+00  7.1422510442718288e+00  7.1422332736869896e+00  7.1422149858495168e+00  7.1421961657879978e+00  7.1421767980979345e+00  7.1421568669292252e+00  7.1421363559732454e+00  7.1421152484495707e+00  7.1420935270923263e+00  7.1420711741361256e+00  7.1420481713015729e+00  7.1420244997803968e+00  7.1420001402200990e+00  7.1419750727081919e+00  7.1419492767559580e+00  7.1419227312817277e+00  7.1418954145936748e+00  7.1418673043721217e+00  7.1418383776513101e+00  7.1418086108006431e+00  7.1417779795053677e+00  7.1417464587467201e+00  7.1417140227814500e+00  7.1416806451207764e+00  7.1416462985086975e+00  7.1416109548996936e+00  7.1415745854357473e+00  7.1415371604227040e+00  7.1414986493059258e+00  7.1414590206452413e+00  7.1414182420891503e+00  7.1413762803482559e+00  7.1413331011679366e+00  7.1412886693002005e+00  7.1412429484746980e+00  7.1411959013688922e+00  7.1411474895773503e+00  7.1410976735800915e+00  7.1410464127100521e+00  7.1409936651195451e+00  7.1409393877457319e+00  7.1408835362750871e+00  7.1408260651067845e+00  7.1407669273150107e+00  7.1407060746101472e+00  7.1406434572988084e+00  7.1405790242426779e+00  7.1405127228161245e+00  7.1404444988625402e+00  7.1403742966494042e+00  7.1403020588219688e+00  7.1402277263555662e+00  7.1401512385065224e+00  7.1400725327615424e+00  7.1399915447856346e+00  7.1399082083684249e+00  7.1398224553688836e+00  7.1397342156583852e+00  7.1396434170620555e+00  7.1395499852983262e+00  7.1394538439167192e+00  7.1393549142336949e+00  7.1392531152665990e+00  7.1391483636655915e+00  7.1390405736435225e+00  7.1389296569036915e+00  7.1388155225653849e+00  7.1386980770871880e+00  7.1385772241879364e+00  7.1384528647652727e+00  7.1383248968117137e+00  7.1381932153281777e+00  7.1380577122348425e+00  7.1379182762792937e+00  7.1377747929418565e+00  7.1376271443380386e+00  7.1374752091179481e+00  7.1373188623626591e+00  7.1371579754773746e+00  7.1369924160812834e+00  7.1368220478940589e+00  7.1366467306188195e+00  7.1364663198214942e+00  7.1362806668064467e+00  7.1360896184882581e+00  7.1358930172595176e+00  7.1356907008545223e+00  7.1354825022087311e+00  7.1352682493138708e+00  7.1350477650684763e+00  7.1348208671238149e+00  7.1345873677249854e+00  7.1343470735470325e+00  7.1340997855259527e+00  7.1338452986843848e+00  7.1335834019518378e+00  7.1333138779792673e+00  7.1330365029478155e+00  7.1327510463715340e+00  7.1324572708938678e+00  7.1321549320777340e+00  7.1318437781889417e+00  7.1315235499727798e+00  7.1311939804234923e+00  7.1308547945464760e+00  7.1305057091128914e+00  7.1301464324064918e+00  7.1297766639623745e+00  7.1293960942974124e+00  7.1290044046320755e+00  7.1286012666033871e+00  7.1281863419686644e+00  7.1277592822997944e+00  7.1273197286677128e+00  7.1268673113167393e+00  7.1264016493284679e+00  7.1259223502748554e+00  7.1254290098601212e+00  7.1249212115511362e+00  7.1243985261958827e+00  7.1238605116295854e+00  7.1233067122681542e+00  7.1227366586884377e+00  7.1221498671949393e+00  7.1215458393724749e+00  7.1209240616243319e+00  7.1202840046954812e+00  7.1196251231802741e+00  7.1189468550141894e+00  7.1182486209490481e+00  7.1175298240111715e+00  7.1167898489419263e+00  7.1160280616200486e+00  7.1152438084651770e+00  7.1144364158219631e+00  7.1136051893241126e+00  7.1127494132377169e+00  7.1118683497831894e+00  7.1109612384350891e+00  7.1100272951991501e+00  7.1090657118657292e+00  7.1080756552389532e+00  7.1070562663407211e+00  7.1060066595888225e+00  7.1049259219482472e+00  7.1038131120549286e+00  7.1026672593109472e+00  7.1014873629503299e+00  7.1002723910745118e+00  7.0990212796564895e+00  7.0977329315126605e+00  7.0964062152413945e+00  7.0950399641272002e+00  7.0936329750095464e+00  7.0921840071151090e+00  7.0906917808524312e+00  7.0891549765677881e+00  7.0875722332610849e+00  7.0859421472606199e+00  7.0842632708554349e+00  7.0825341108840227e+00  7.0807531272781032e+00  7.0789187315601527e+00  7.0770292852933476e+00  7.0750830984825814e+00  7.0730784279251262e+00  7.0710134755095799e+00  7.0688863864616440e+00  7.0666952475352671e+00  7.0644380851476969e+00  7.0621128634570045e+00  7.0597174823804476e+00  7.0572497755523074e+00  7.0547075082195718e+00  7.0520883750739571e+00  7.0493899980187633e+00  7.0466099238689557e+00  7.0437456219830228e+00  7.0407944818249