<?xml version="1.0"?>
<VTKFile type="UnstructuredGrid"  version="0.1"  >
<UnstructuredGrid>
<Piece  NumberOfPoints="1001" NumberOfCells="1000">
<Points>
<DataArray  type="Float64"  NumberOfComponents="3"  format="ascii">0 0 0  0.001 0 0  0.002 0 0  0.003 0 0  0.004 0 0  0.005 0 0  0.006 0 0  0.007 0 0  0.008 0 0  0.008999999999999999 0 0  0.01 0 0  0.011 0 0  0.012 0 0  0.013 0 0  0.014 0 0  0.015 0 0  0.016 0 0  0.017 0 0  0.018 0 0  0.019 0 0  0.02 0 0  0.021 0 0  0.022 0 0  0.023 0 0  0.024 0 0  0.025 0 0  0.026 0 0  0.027 0 0  0.028 0 0  0.029 0 0  0.03 0 0  0.031 0 0  0.032 0 0  0.033 0 0  0.034 0 0  0.035 0 0  0.036 0 0  0.037 0 0  0.038 0 0  0.039 0 0  0.04 0 0  0.041 0 0  0.042 0 0  0.043 0 0  0.044 0 0  0.045 0 0  0.046 0 0  0.047 0 0  0.048 0 0  0.049 0 0  0.05 0 0  0.051 0 0  0.052 0 0  0.053 0 0  0.054 0 0  0.055 0 0  0.056 0 0  0.057 0 0  0.058 0 0  0.059 0 0  0.06 0 0  0.061 0 0  0.062 0 0  0.063 0 0  0.064 0 0  0.065 0 0  0.066 0 0  0.067 0 0  0.068 0 0  0.06900000000000001 0 0  0.07000000000000001 0 0  0.07099999999999999 0 0  0.07199999999999999 0 0  0.073 0 0  0.074 0 0  0.075 0 0  0.076 0 0  0.077 0 0  0.078 0 0  0.079 0 0  0.08 0 0  0.081 0 0  0.082 0 0  0.083 0 0  0.08400000000000001 0 0  0.08500000000000001 0 0  0.08599999999999999 0 0  0.08699999999999999 0 0  0.08799999999999999 0 0  0.089 0 0  0.09 0 0  0.091 0 0  0.092 0 0  0.093 0 0  0.094 0 0  0.095 0 0  0.096 0 0  0.097 0 0  0.098 0 0  0.099 0 0  0.1 0 0  0.101 0 0  0.102 0 0  0.103 0 0  0.104 0 0  0.105 0 0  0.106 0 0  0.107 0 0  0.108 0 0  0.109 0 0  0.11 0 0  0.111 0 0  0.112 0 0  0.113 0 0  0.114 0 0  0.115 0 0  0.116 0 0  0.117 0 0  0.118 0 0  0.119 0 0  0.12 0 0  0.121 0 0  0.122 0 0  0.123 0 0  0.124 0 0  0.125 0 0  0.126 0 0  0.127 0 0  0.128 0 0  0.129 0 0  0.13 0 0  0.131 0 0  0.132 0 0  0.133 0 0  0.134 0 0  0.135 0 0  0.136 0 0  0.137 0 0  0.138 0 0  0.139 0 0  0.14 0 0  0.141 0 0  0.142 0 0  0.143 0 0  0.144 0 0  0.145 0 0  0.146 0 0  0.147 0 0  0.148 0 0  0.149 0 0  0.15 0 0  0.151 0 0  0.152 0 0  0.153 0 0  0.154 0 0  0.155 0 0  0.156 0 0  0.157 0 0  0.158 0 0  0.159 0 0  0.16 0 0  0.161 0 0  0.162 0 0  0.163 0 0  0.164 0 0  0.165 0 0  0.166 0 0  0.167 0 0  0.168 0 0  0.169 0 0  0.17 0 0  0.171 0 0  0.172 0 0  0.173 0 0  0.174 0 0  0.175 0 0  0.176 0 0  0.177 0 0  0.178 0 0  0.179 0 0  0.18 0 0  0.181 0 0  0.182 0 0  0.183 0 0  0.184 0 0  0.185 0 0  0.186 0 0  0.187 0 0  0.188 0 0  0.189 0 0  0.19 0 0  0.191 0 0  0.192 0 0  0.193 0 0  0.194 0 0  0.195 0 0  0.196 0 0  0.197 0 0  0.198 0 0  0.199 0 0  0.2 0 0  0.201 0 0  0.202 0 0  0.203 0 0  0.204 0 0  0.205 0 0  0.206 0 0  0.207 0 0  0.208 0 0  0.209 0 0  0.21 0 0  0.211 0 0  0.212 0 0  0.213 0 0  0.214 0 0  0.215 0 0  0.216 0 0  0.217 0 0  0.218 0 0  0.219 0 0  0.22 0 0  0.221 0 0  0.222 0 0  0.223 0 0  0.224 0 0  0.225 0 0  0.226 0 0  0.227 0 0  0.228 0 0  0.229 0 0  0.23 0 0  0.231 0 0  0.232 0 0  0.233 0 0  0.234 0 0  0.235 0 0  0.236 0 0  0.237 0 0  0.238 0 0  0.239 0 0  0.24 0 0  0.241 0 0  0.242 0 0  0.243 0 0  0.244 0 0  0.245 0 0  0.246 0 0  0.247 0 0  0.248 0 0  0.249 0 0  0.25 0 0  0.251 0 0  0.252 0 0  0.253 0 0  0.254 0 0  0.255 0 0  0.256 0 0  0.257 0 0  0.258 0 0  0.259 0 0  0.26 0 0  0.261 0 0  0.262 0 0  0.263 0 0  0.264 0 0  0.265 0 0  0.266 0 0  0.267 0 0  0.268 0 0  0.269 0 0  0.27 0 0  0.271 0 0  0.272 0 0  0.273 0 0  0.274 0 0  0.275 0 0  0.276 0 0  0.277 0 0  0.278 0 0  0.279 0 0  0.28 0 0  0.281 0 0  0.282 0 0  0.283 0 0  0.284 0 0  0.285 0 0  0.286 0 0  0.287 0 0  0.288 0 0  0.289 0 0  0.29 0 0  0.291 0 0  0.292 0 0  0.293 0 0  0.294 0 0  0.295 0 0  0.296 0 0  0.297 0 0  0.298 0 0  0.299 0 0  0.3 0 0  0.301 0 0  0.302 0 0  0.303 0 0  0.304 0 0  0.305 0 0  0.306 0 0  0.307 0 0  0.308 0 0  0.309 0 0  0.31 0 0  0.311 0 0  0.312 0 0  0.313 0 0  0.314 0 0  0.315 0 0  0.316 0 0  0.317 0 0  0.318 0 0  0.319 0 0  0.32 0 0  0.321 0 0  0.322 0 0  0.323 0 0  0.324 0 0  0.325 0 0  0.326 0 0  0.327 0 0  0.328 0 0  0.329 0 0  0.33 0 0  0.331 0 0  0.332 0 0  0.333 0 0  0.334 0 0  0.335 0 0  0.336 0 0  0.337 0 0  0.338 0 0  0.339 0 0  0.34 0 0  0.341 0 0  0.342 0 0  0.343 0 0  0.344 0 0  0.345 0 0  0.346 0 0  0.347 0 0  0.348 0 0  0.349 0 0  0.35 0 0  0.351 0 0  0.352 0 0  0.353 0 0  0.354 0 0  0.355 0 0  0.356 0 0  0.357 0 0  0.358 0 0  0.359 0 0  0.36 0 0  0.361 0 0  0.362 0 0  0.363 0 0  0.364 0 0  0.365 0 0  0.366 0 0  0.367 0 0  0.368 0 0  0.369 0 0  0.37 0 0  0.371 0 0  0.372 0 0  0.373 0 0  0.374 0 0  0.375 0 0  0.376 0 0  0.377 0 0  0.378 0 0  0.379 0 0  0.38 0 0  0.381 0 0  0.382 0 0  0.383 0 0  0.384 0 0  0.385 0 0  0.386 0 0  0.387 0 0  0.388 0 0  0.389 0 0  0.39 0 0  0.391 0 0  0.392 0 0  0.393 0 0  0.394 0 0  0.395 0 0  0.396 0 0  0.397 0 0  0.398 0 0  0.399 0 0  0.4 0 0  0.401 0 0  0.402 0 0  0.403 0 0  0.404 0 0  0.405 0 0  0.406 0 0  0.407 0 0  0.408 0 0  0.409 0 0  0.41 0 0  0.411 0 0  0.412 0 0  0.413 0 0  0.414 0 0  0.415 0 0  0.416 0 0  0.417 0 0  0.418 0 0  0.419 0 0  0.42 0 0  0.421 0 0  0.422 0 0  0.423 0 0  0.424 0 0  0.425 0 0  0.426 0 0  0.427 0 0  0.428 0 0  0.429 0 0  0.43 0 0  0.431 0 0  0.432 0 0  0.433 0 0  0.434 0 0  0.435 0 0  0.436 0 0  0.437 0 0  0.438 0 0  0.439 0 0  0.44 0 0  0.441 0 0  0.442 0 0  0.443 0 0  0.444 0 0  0.445 0 0  0.446 0 0  0.447 0 0  0.448 0 0  0.449 0 0  0.45 0 0  0.451 0 0  0.452 0 0  0.453 0 0  0.454 0 0  0.455 0 0  0.456 0 0  0.457 0 0  0.458 0 0  0.459 0 0  0.46 0 0  0.461 0 0  0.462 0 0  0.463 0 0  0.464 0 0  0.465 0 0  0.466 0 0  0.467 0 0  0.468 0 0  0.469 0 0  0.47 0 0  0.471 0 0  0.472 0 0  0.473 0 0  0.474 0 0  0.475 0 0  0.476 0 0  0.477 0 0  0.478 0 0  0.479 0 0  0.48 0 0  0.481 0 0  0.482 0 0  0.483 0 0  0.484 0 0  0.485 0 0  0.486 0 0  0.487 0 0  0.488 0 0  0.489 0 0  0.49 0 0  0.491 0 0  0.492 0 0  0.493 0 0  0.494 0 0  0.495 0 0  0.496 0 0  0.497 0 0  0.498 0 0  0.499 0 0  0.5 0 0  0.501 0 0  0.502 0 0  0.503 0 0  0.504 0 0  0.505 0 0  0.506 0 0  0.507 0 0  0.508 0 0  0.509 0 0  0.51 0 0  0.511 0 0  0.512 0 0  0.513 0 0  0.514 0 0  0.515 0 0  0.516 0 0  0.517 0 0  0.518 0 0  0.519 0 0  0.52 0 0  0.521 0 0  0.522 0 0  0.523 0 0  0.524 0 0  0.525 0 0  0.526 0 0  0.527 0 0  0.528 0 0  0.529 0 0  0.53 0 0  0.531 0 0  0.532 0 0  0.533 0 0  0.534 0 0  0.535 0 0  0.536 0 0  0.537 0 0  0.538 0 0  0.539 0 0  0.54 0 0  0.541 0 0  0.542 0 0  0.543 0 0  0.544 0 0  0.545 0 0  0.546 0 0  0.547 0 0  0.548 0 0  0.549 0 0  0.55 0 0  0.551 0 0  0.552 0 0  0.553 0 0  0.554 0 0  0.555 0 0  0.556 0 0  0.5570000000000001 0 0  0.5580000000000001 0 0  0.5590000000000001 0 0  0.5600000000000001 0 0  0.5610000000000001 0 0  0.5620000000000001 0 0  0.5629999999999999 0 0  0.5639999999999999 0 0  0.5649999999999999 0 0  0.5659999999999999 0 0  0.5669999999999999 0 0  0.5679999999999999 0 0  0.569 0 0  0.57 0 0  0.571 0 0  0.572 0 0  0.573 0 0  0.574 0 0  0.575 0 0  0.576 0 0  0.577 0 0  0.578 0 0  0.579 0 0  0.58 0 0  0.581 0 0  0.582 0 0  0.583 0 0  0.584 0 0  0.585 0 0  0.586 0 0  0.587 0 0  0.588 0 0  0.589 0 0  0.59 0 0  0.591 0 0  0.592 0 0  0.593 0 0  0.594 0 0  0.595 0 0  0.596 0 0  0.597 0 0  0.598 0 0  0.599 0 0  0.6 0 0  0.601 0 0  0.602 0 0  0.603 0 0  0.604 0 0  0.605 0 0  0.606 0 0  0.607 0 0  0.608 0 0  0.609 0 0  0.61 0 0  0.611 0 0  0.612 0 0  0.613 0 0  0.614 0 0  0.615 0 0  0.616 0 0  0.617 0 0  0.618 0 0  0.619 0 0  0.62 0 0  0.621 0 0  0.622 0 0  0.623 0 0  0.624 0 0  0.625 0 0  0.626 0 0  0.627 0 0  0.628 0 0  0.629 0 0  0.63 0 0  0.631 0 0  0.632 0 0  0.633 0 0  0.634 0 0  0.635 0 0  0.636 0 0  0.637 0 0  0.638 0 0  0.639 0 0  0.64 0 0  0.641 0 0  0.642 0 0  0.643 0 0  0.644 0 0  0.645 0 0  0.646 0 0  0.647 0 0  0.648 0 0  0.649 0 0  0.65 0 0  0.651 0 0  0.652 0 0  0.653 0 0  0.654 0 0  0.655 0 0  0.656 0 0  0.657 0 0  0.658 0 0  0.659 0 0  0.66 0 0  0.661 0 0  0.662 0 0  0.663 0 0  0.664 0 0  0.665 0 0  0.666 0 0  0.667 0 0  0.668 0 0  0.669 0 0  0.67 0 0  0.671 0 0  0.672 0 0  0.673 0 0  0.674 0 0  0.675 0 0  0.676 0 0  0.677 0 0  0.678 0 0  0.679 0 0  0.68 0 0  0.681 0 0  0.6820000000000001 0 0  0.6830000000000001 0 0  0.6840000000000001 0 0  0.6850000000000001 0 0  0.6860000000000001 0 0  0.6870000000000001 0 0  0.6879999999999999 0 0  0.6889999999999999 0 0  0.6899999999999999 0 0  0.6909999999999999 0 0  0.6919999999999999 0 0  0.6929999999999999 0 0  0.694 0 0  0.695 0 0  0.696 0 0  0.697 0 0  0.698 0 0  0.699 0 0  0.7 0 0  0.701 0 0  0.702 0 0  0.703 0 0  0.704 0 0  0.705 0 0  0.706 0 0  0.707 0 0  0.708 0 0  0.709 0 0  0.71 0 0  0.711 0 0  0.712 0 0  0.713 0 0  0.714 0 0  0.715 0 0  0.716 0 0  0.717 0 0  0.718 0 0  0.719 0 0  0.72 0 0  0.721 0 0  0.722 0 0  0.723 0 0  0.724 0 0  0.725 0 0  0.726 0 0  0.727 0 0  0.728 0 0  0.729 0 0  0.73 0 0  0.731 0 0  0.732 0 0  0.733 0 0  0.734 0 0  0.735 0 0  0.736 0 0  0.737 0 0  0.738 0 0  0.739 0 0  0.74 0 0  0.741 0 0  0.742 0 0  0.743 0 0  0.744 0 0  0.745 0 0  0.746 0 0  0.747 0 0  0.748 0 0  0.749 0 0  0.75 0 0  0.751 0 0  0.752 0 0  0.753 0 0  0.754 0 0  0.755 0 0  0.756 0 0  0.757 0 0  0.758 0 0  0.759 0 0  0.76 0 0  0.761 0 0  0.762 0 0  0.763 0 0  0.764 0 0  0.765 0 0  0.766 0 0  0.767 0 0  0.768 0 0  0.769 0 0  0.77 0 0  0.771 0 0  0.772 0 0  0.773 0 0  0.774 0 0  0.775 0 0  0.776 0 0  0.777 0 0  0.778 0 0  0.779 0 0  0.78 0 0  0.781 0 0  0.782 0 0  0.783 0 0  0.784 0 0  0.785 0 0  0.786 0 0  0.787 0 0  0.788 0 0  0.789 0 0  0.79 0 0  0.791 0 0  0.792 0 0  0.793 0 0  0.794 0 0  0.795 0 0  0.796 0 0  0.797 0 0  0.798 0 0  0.799 0 0  0.8 0 0  0.801 0 0  0.802 0 0  0.803 0 0  0.804 0 0  0.805 0 0  0.806 0 0  0.8070000000000001 0 0  0.8080000000000001 0 0  0.8090000000000001 0 0  0.8100000000000001 0 0  0.8110000000000001 0 0  0.8120000000000001 0 0  0.8129999999999999 0 0  0.8139999999999999 0 0  0.8149999999999999 0 0  0.8159999999999999 0 0  0.8169999999999999 0 0  0.8179999999999999 0 0  0.819 0 0  0.82 0 0  0.821 0 0  0.822 0 0  0.823 0 0  0.824 0 0  0.825 0 0  0.826 0 0  0.827 0 0  0.828 0 0  0.829 0 0  0.83 0 0  0.831 0 0  0.832 0 0  0.833 0 0  0.834 0 0  0.835 0 0  0.836 0 0  0.837 0 0  0.838 0 0  0.839 0 0  0.84 0 0  0.841 0 0  0
[...]
<PointData  Scalars="f_20-0"> 
<DataArray  type="Float64"  Name="f_20-0"  format="ascii">6.8819208087176547e+00  6.8820536806545674e+00  6.8824515823209884e+00  6.8831123805792744e+00  6.8840325509687110e+00  6.8852072231113111e+00  6.8866302428121910e+00  6.8882942494484016e+00  6.8901907669227187e+00  6.8923103061994864e+00  6.8946424772450774e+00  6.8971761080700924e+00  6.8998993685152747e+00  6.9027998964367212e+00  6.9058649240236312e+00  6.9090814021175273e+00  6.9124361205864986e+00  6.9159158230322317e+00  6.9195073143607839e+00  6.9231975600192719e+00  6.9269737759797803e+00  6.9308235088287375e+00  6.9347347055864619e+00  6.9386957731298526e+00  6.9426956273159375e+00  6.9467237321005175e+00  6.9507701291121702e+00  6.9548254582759697e+00  6.9588809701836958e+00  6.9629285309792488e+00  6.9669606205715269e+00  6.9709703250052488e+00  6.9749513238159997e+00  6.9788978731731106e+00  6.9828047855761000e+00  6.9866674068209909e+00  6.9904815908951381e+00  6.9942436733962330e+00  6.9979504440054416e+00  7.0015991184785875e+00  7.0051873105545592e+00  7.0087130041182517e+00  7.0121745258973087e+00  7.0155705189186328e+00  7.0188999169022743e+00  7.0221619197273260e+00  7.0253559700667152e+00  7.0284817312552059e+00  7.0315390664271824e+00  7.0345280189376087e+00  7.0374487940604853e+00  7.0403017419437681e+00  7.0430873417875679e+00  7.0458061872032873e+00  7.0484589727044566e+00  7.0510464812753471e+00  7.0535695729604448e+00  7.0560291744162340e+00  7.0584262693663886e+00  7.0607618899018538e+00  7.0630371085686310e+00  7.0652530311876802e+00  7.0674107903535992e+00  7.0695115395610841e+00  7.0715564479107984e+00  7.0735466953489468e+00  7.0754834683975867e+00  7.0773679563354071e+00  7.0792013477914075e+00  7.0809848277164047e+00  7.0827195746999037e+00  7.0844067586021149e+00  7.0860475384732728e+00  7.0876430607344219e+00  7.0891944575959407e+00  7.0907028456918839e+00  7.0921693249100057e+00  7.0935949773989213e+00  7.0949808667354493e+00  7.0963280372365141e+00  7.0976375134013239e+00  7.0989102994707709e+00  7.1001473790920482e+00  7.1013497150775882e+00  7.1025182492483090e+00  7.1036539023520620e+00  7.1047575740489757e+00  7.1058301429561412e+00  7.1068724667447070e+00  7.1078853822831904e+00  7.1088697058212338e+00  7.1098262332087225e+00  7.1107557401455432e+00  7.1116589824577305e+00  7.1125366963962273e+00  7.1133895989547522e+00  7.1142183882036658e+00  7.1150237436370452e+00  7.1158063265304099e+00  7.1165667803068642e+00  7.1173057309096164e+00  7.1180237871790597e+00  7.1187215412327962e+00  7.1193995688471778e+00  7.1200584298390766e+00  7.1206986684467646e+00  7.1213208137089161e+00  7.1219253798408593e+00  7.1225128666073108e+00  7.1230837596909540e+00  7.1236385310562520e+00  7.1241776393080567e+00  7.1247015300445744e+00  7.1252106362043417e+00  7.1257053784069182e+00  7.1261861652870726e+00  7.1266533938222860e+00  7.1271074496533888e+00  7.1275487073982706e+00  7.1279775309585567e+00  7.1283942738192403e+00  7.1287992793412185e+00  7.1291928810467615e+00  7.1295754028979639e+00  7.1299471595681627e+00  7.1303084567064614e+00  7.1306595911953679e+00  7.1310008514016943e+00  7.1313325174207431e+00  7.1316548613139785e+00  7.1319681473401921e+00  7.1322726321803813e+00  7.1325685651563822e+00  7.1328561884434416e+00  7.1331357372768167e+00  7.1334074401525749e+00  7.1336715190226840e+00  7.1339281894845623e+00  7.1341776609652081e+00  7.1344201369000375e+00  7.1346558149065817e+00  7.1348848869531594e+00  7.1351075395226653e+00  7.1353239537716027e+00  7.1355343056844820e+00  7.1357387662237333e+00  7.1359375014752118e+00  7.1361306727894842e+00  7.1363184369189545e+00  7.1365009461509770e+00  7.1366783484370595e+00  7.1368507875182825e+00  7.1370184030470334e+00  7.1371813307051584e+00  7.1373397023186511e+00  7.1374936459689646e+00  7.1376432861010475e+00  7.1377887436282155e+00  7.1379301360339333e+00  7.1380675774706095e+00  7.1382011788554820e+00  7.1383310479637005e+00  7.1384572895186720e+00  7.1385800052797430e+00  7.1386992941273375e+00  7.1388152521455606e+00  7.1389279727024331e+00  7.1390375465277289e+00  7.1391440617885662e+00  7.1392476041627697e+00  7.1393482569101101e+00  7.1394461009414423e+00  7.1395412148858339e+00  7.1396336751557525e+00  7.1397235560103240e+00  7.1398109296167753e+00  7.1398958661100771e+00  7.1399784336508532e+00  7.1400586984816163e+00  7.1401367249813648e+00  7.1402125757185955e+00  7.1402863115027788e+00  7.1403579914343629e+00  7.1404276729532983e+00  7.1404954118861834e+00  7.1405612624920458e+00  7.1406252775067953e+00  7.1406875081863994e+00  7.1407480043488016e+00  7.1408068144146695e+00  7.1408639854469156e+00  7.1409195631891302e+00  7.1409735921028803e+00  7.1410261154039549e+00  7.1410771750975606e+00  7.1411268120125015e+00  7.1411750658344095e+00  7.1412219751379835e+00  7.1412675774183265e+00  7.1413119091213968e+00  7.1413550056735655e+00  7.1413969015103449e+00  7.1414376301043010e+00  7.1414772239921582e+00  7.1415157148011250e+00  7.1415531332744964e+00  7.1415895092964981e+00  7.1416248719164566e+00  7.1416592493722417e+00  7.1416926691130698e+00  7.1417251578216669e+00  7.1417567414357714e+00  7.1417874451690517e+00  7.1418172935314246e+00  7.1418463103487966e+00  7.1418745187822426e+00  7.1419019413466422e+00  7.1419285999288089e+00  7.1419545158050637e+00  7.1419797096583544e+00  7.1420042015948679e+00  7.1420280111601793e+00  7.1420511573549437e+00  7.1420736586501503e+00  7.1420955330019416e+00  7.1421167978660112e+00  7.1421374702116003e+00  7.1421575665351034e+00  7.1421771028732843e+00  7.1421960948161267e+00  7.1422145575193063e+00  7.1422325057163407e+00  7.1422499537303716e+00  7.1422669154856342e+00  7.1422834045185821e+00  7.1422994339887316e+00  7.1423150166891647e+00  7.1423301650567748e+00  7.1423448911821898e+00  7.1423592068194388e+00  7.1423731233953500e+00  7.1423866520186650e+00  7.1423998034889156e+00  7.1424125883050396e+00  7.1424250166737737e+00  7.1424370985177896e+00  7.1424488434836144e+00  7.1424602609493251e+00  7.1424713600320322e+00  7.1424821495951489e+00  7.1424926382554581e+00  7.1425028343899868e+00  7.1425127461426845e+00  7.1425223814309042e+00  7.1425317479517298e+00  7.1425408531880956e+00  7.1425497044147530e+00  7.1425583087040740e+00  7.1425666729316708e+00  7.1425748037818844e+00  7.1425827077531103e+00  7.1425903911629600e+00  7.1425978601533009e+00  7.1426051206951513e+00  7.1426121785934278e+00  7.1426190394915663e+00  7.1426257088760217e+00  7.1426321920806277e+00  7.1426384942908427e+00  7.1426446205478866e+00  7.1426505757527412e+00  7.1426563646700574e+00  7.1426619919319485e+00  7.1426674620416719e+00  7.1426727793772118e+00  7.1426779481947671e+00  7.1426829726321373e+00  7.1426878567120156e+00  7.1426926043451848e+00  7.1426972193336358e+00  7.1427017053735860e+00  7.1427060660584232e+00  7.1427103048815681e+00  7.1427144252392454e+00  7.1427184304331961e+00  7.1427223236732971e+00  7.1427261080801152e+00  7.1427297866873909e+00  7.1427333624444573e+00  7.1427368382185774e+00  7.1427402167972360e+00  7.1427435008903464e+00  7.1427466931324162e+00  7.1427497960846367e+00  7.1427528122369237e+00  7.1427557440099028e+00  7.1427585937568221e+00  7.1427613637654437e+00  7.1427640562598507e+00  7.1427666734022246e+00  7.1427692172945578e+00  7.1427716899803357e+00  7.1427740934461550e+00  7.1427764296233160e+00  7.1427787003893446e+00  7.1427809075695015e+00  7.1427830529382241e+00  7.1427851382205487e+00  7.1427871650934787e+00  7.1427891351873178e+00  7.1427910500869691e+00  7.1427929113332107e+00  7.1427947204238942e+00  7.1427964788151694e+00  7.1427981879226170e+00  7.1427998491223939e+00  7.1428014637523267e+00  7.1428030331129673e+00  7.1428045584686428e+00  7.1428060410484546e+00  7.1428074820472585e+00  7.1428088826266176e+00  7.1428102439157284e+00  7.1428115670123224e+00  7.1428128529835391e+00  7.1428141028667742e+00  7.1428153176705189e+00  7.1428164983751419e+00  7.1428176459336905e+00  7.1428187612726459e+00  7.1428198452926566e+00  7.1428208988692630e+00  7.1428219228535861e+00  7.1428229180730272e+00  7.1428238853319028e+00  7.1428248254121058e+00  7.1428257390737127e+00  7.1428266270556096e+00  7.1428274900760664e+00  7.1428283288333203e+00  7.1428291440061171e+00  7.1428299362542766e+00  7.1428307062192022e+00  7.1428314545244023e+00  7.1428321817759794e+00  7.1428328885631229e+00  7.1428335754585737e+00  7.1428342430190890e+00  7.1428348917858813e+00  7.1428355222850488e+00  7.1428361350280056e+00  7.1428367305118803e+00  7.1428373092199209e+00  7.1428378716218743e+00  7.1428384181743709e+00  7.1428389493212814e+00  7.1428394654940774e+00  7.1428399671121712e+00  7.1428404545832604e+00  7.1428409283036469e+00  7.1428413886585540e+00  7.1428418360224342e+00  7.1428422707592807e+00  7.1428426932229012e+00  7.1428431037572153e+00  7.1428435026965271e+00  7.1428438903657812e+00  7.1428442670808394e+00  7.1428446331487265e+00  7.1428449888678758e+00  7.1428453345283680e+00  7.1428456704121714e+00  7.1428459967933540e+00  7.1428463139383185e+00  7.1428466221060027e+00  7.1428469215481014e+00  7.1428472125092535e+00  7.1428474952272438e+00  7.1428477699332058e+00  7.1428480368517864e+00  7.1428482962013424e+00  7.1428485481941077e+00  7.1428487930363707e+00  7.1428490309286321e+00  7.1428492620657700e+00  7.1428494866371963e+00  7.1428497048270119e+00  7.1428499168141499e+00  7.1428501227725212e+00  7.1428503228711566e+00  7.1428505172743373e+00  7.1428507061417346e+00  7.1428508896285345e+00  7.1428510678855606e+00  7.1428512410593950e+00  7.1428514092925059e+00  7.1428515727233508e+00  7.1428517314864930e+00  7.1428518857127123e+00  7.1428520355291027e+00  7.1428521810591841e+00  7.1428523224229989e+00  7.1428524597372016e+00  7.1428525931151636e+00  7.1428527226670582e+00  7.1428528484999543e+00  7.1428529707178932e+00  7.1428530894219842e+00  7.1428532047104758e+00  7.1428533166788446e+00  7.1428534254198670e+00  7.1428535310236940e+00  7.1428536335779240e+00  7.1428537331676756e+00  7.1428538298756541e+00  7.1428539237822211e+00  7.1428540149654545e+00  7.1428541035012199e+00  7.1428541894632174e+00  7.1428542729230555e+00  7.1428543539503071e+00  7.1428544326125589e+00  7.1428545089754660e+00  7.1428545831028103e+00  7.1428546550565528e+00  7.1428547248968783e+00  7.1428547926822459e+00  7.1428548584694376e+00  7.1428549223135995e+00  7.1428549842682951e+00  7.1428550443855396e+00  7.1428551027158482e+00  7.1428551593082688e+00  7.1428552142104369e+00  7.1428552674685903e+00  7.1428553191276318e+00  7.1428553692311469e+00  7.1428554178214494e+00  7.1428554649396068e+00  7.1428555106254850e+00  7.1428555549177650e+00  7.1428555978539894e+00  7.1428556394705769e+00  7.1428556798028717e+00  7.1428557188851496e+00  7.1428557567506639e+00  7.1428557934316581e+00  7.1428558289593997e+00  7.1428558633642067e+00  7.1428558966754663e+00  7.1428559289216551e+00  7.1428559601303778e+00  7.1428559903283713e+00  7.1428560195415374e+00  7.1428560477949556e+00  7.1428560751129062e+00  7.1428561015188912e+00  7.1428561270356559e+00  7.1428561516851996e+00  7.1428561754887978e+00  7.1428561984670145e+00  7.1428562206397235e+00  7.1428562420261219e+00  7.1428562626447487e+00  7.1428562825134918e+00  7.1428563016496085e+00  7.1428563200697361e+00  7.1428563377899037e+00  7.1428563548255530e+00  7.1428563711915407e+00  7.1428563869021513e+00  7.1428564019711143e+00  7.1428564164116066e+00  7.1428564302362778e+00  7.1428564434572346e+00  7.1428564560860757e+00  7.1428564681338917e+00  7.1428564796112646e+00  7.1428564905282927e+00  7.1428565008945792e+00  7.1428565107192581e+00  7.1428565200109917e+00  7.1428565287779735e+00  7.1428565370279440e+00  7.1428565447681933e+00  7.1428565520055622e+00  7.1428565587464590e+00  7.1428565649968414e+00  7.1428565707622536e+00  7.1428565760477971e+00  7.1428565808581599e+00  7.1428565851976060e+00  7.1428565890699902e+00  7.1428565924787462e+00  7.1428565954269017e+00  7.1428565979170759e+00  7.1428565999514806e+00  7.1428566015319239e+00  7.1428566026598084e+00  7.1428566033361376e+00  7.1428566035615146e+00  7.1428566033361376e+00  7.1428566026598084e+00  7.1428566015319221e+00  7.1428565999514806e+00  7.1428565979170768e+00  7.1428565954269008e+00  7.1428565924787470e+00  7.1428565890699902e+00  7.1428565851976051e+00  7.1428565808581590e+00  7.1428565760477989e+00  7.1428565707622544e+00  7.1428565649968423e+00  7.1428565587464590e+00  7.1428565520055658e+00  7.1428565447681951e+00  7.1428565370279449e+00  7.1428565287779717e+00  7.1428565200109890e+00  7.1428565107192590e+00  7.1428565008945792e+00  7.1428564905282927e+00  7.1428564796112681e+00  7.1428564681338944e+00  7.1428564560860792e+00  7.1428564434572355e+00  7.1428564302362769e+00  7.1428564164116084e+00  7.1428564019711160e+00  7.1428563869021566e+00  7.1428563711915469e+00  7.1428563548255601e+00  7.1428563377899099e+00  7.1428563200697388e+00  7.1428563016496120e+00  7.1428562825134927e+00  7.1428562626447487e+00  7.1428562420261219e+00  7.1428562206397208e+00  7.1428561984670100e+00  7.1428561754887943e+00  7.1428561516851978e+00  7.1428561270356559e+00  7.1428561015188885e+00  7.1428560751129027e+00  7.1428560477949530e+00  7.1428560195415391e+00  7.1428559903283739e+00  7.1428559601303796e+00  7.1428559289216560e+00  7.1428558966754645e+00  7.1428558633642067e+00  7.1428558289594006e+00  7.1428557934316599e+00  7.1428557567506674e+00  7.1428557188851540e+00  7.1428556798028762e+00  7.1428556394705813e+00  7.1428555978539912e+00  7.1428555549177695e+00  7.1428555106254885e+00  7.1428554649396121e+00  7.1428554178214521e+00  7.1428553692311496e+00  7.1428553191276327e+00  7.1428552674685903e+00  7.1428552142104369e+00  7.1428551593082688e+00  7.1428551027158473e+00  7.1428550443855379e+00  7.1428549842682925e+00  7.1428549223135978e+00  7.1428548584694367e+00  7.1428547926822450e+00  7.1428547248968792e+00  7.1428546550565537e+00  7.1428545831028103e+00  7.1428545089754643e+00  7.1428544326125571e+00  7.1428543539503089e+00  7.1428542729230555e+00  7.1428541894632138e+00  7.1428541035012190e+00  7.1428540149654562e+00  7.1428539237822219e+00  7.1428538298756541e+00  7.1428537331676756e+00  7.1428536335779231e+00  7.1428535310236931e+00  7.1428534254198670e+00  7.1428533166788455e+00  7.1428532047104758e+00  7.1428530894219842e+00  7.1428529707178932e+00  7.1428528484999552e+00  7.1428527226670600e+00  7.1428525931151636e+00  7.1428524597372016e+00  7.1428523224229963e+00  7.1428521810591796e+00  7.1428520355290974e+00  7.1428518857127052e+00  7.1428517314864877e+00  7.1428515727233437e+00  7.1428514092924988e+00  7.1428512410593861e+00  7.1428510678855526e+00  7.1428508896285274e+00  7.1428507061417310e+00  7.1428505172743328e+00  7.1428503228711522e+00  7.1428501227725185e+00  7.1428499168141464e+00  7.1428497048270092e+00  7.1428494866371937e+00  7.1428492620657682e+00  7.1428490309286294e+00  7.1428487930363707e+00  7.1428485481941077e+00  7.1428482962013424e+00  7.1428480368517864e+00  7.1428477699332058e+00  7.1428474952272438e+00  7.1428472125092535e+00  7.1428469215481014e+00  7.1428466221060027e+00  7.1428463139383167e+00  7.1428459967933504e+00  7.1428456704121670e+00  7.1428453345283671e+00  7.1428449888678731e+00  7.1428446331487239e+00  7.1428442670808368e+00  7.1428438903657785e+00  7.1428435026965245e+00  7.1428431037572162e+00  7.1428426932228994e+00  7.1428422707592780e+00  7.1428418360224315e+00  7.1428413886585496e+00  7.1428409283036434e+00  7.1428404545832604e+00  7.1428399671121694e+00  7.1428394654940766e+00  7.1428389493212796e+00  7.1428384181743709e+00  7.1428378716218743e+00  7.1428373092199209e+00  7.1428367305118767e+00  7.1428361350280030e+00  7.1428355222850479e+00  7.1428348917858786e+00  7.1428342430190881e+00  7.1428335754585710e+00  7.1428328885631185e+00  7.1428321817759750e+00  7.1428314545243996e+00  7.1428307062192005e+00  7.1428299362542749e+00  7.1428291440061153e+00  7.1428283288333185e+00  7.1428274900760700e+00  7.1428266270556131e+00  7.1428257390737144e+00  7.1428248254121041e+00  7.1428238853319028e+00  7.1428229180730263e+00  7.1428219228535843e+00  7.1428208988692594e+00  7.1428198452926557e+00  7.1428187612726468e+00  7.1428176459336905e+00  7.1428164983751392e+00  7.1428153176705180e+00  7.1428141028667751e+00  7.1428128529835364e+00  7.1428115670123207e+00  7.1428102439157275e+00  7.1428088826266176e+00  7.1428074820472585e+00  7.1428060410484555e+00  7.1428045584686446e+00  7.1428030331129699e+00  7.1428014637523285e+00  7.1427998491223965e+00  7.1427981879226179e+00  7.1427964788151685e+00  7.1427947204238968e+00  7.1427929113332134e+00  7.1427910500869700e+00  7.1427891351873152e+00  7.1427871650934760e+00  7.1427851382205469e+00  7.1427830529382197e+00  7.1427809075694952e+00  7.1427787003893384e+00  7.1427764296233107e+00  7.1427740934461514e+00  7.1427716899803331e+00  7.1427692172945569e+00  7.1427666734022228e+00  7.1427640562598516e+00  7.1427613637654428e+00  7.1427585937568203e+00  7.1427557440099010e+00  7.1427528122369219e+00  7.1427497960846358e+00  7.1427466931324162e+00  7.1427435008903455e+00  7.1427402167972343e+00  7.1427368382185756e+00  7.1427333624444538e+00  7.1427297866873873e+00  7.1427261080801108e+00  7.1427223236732962e+00  7.1427184304331961e+00  7.1427144252392463e+00  7.1427103048815672e+00  7.1427060660584214e+00  7.1427017053735851e+00  7.1426972193336358e+00  7.1426926043451857e+00  7.1426878567120156e+00  7.1426829726321373e+00  7.1426779481947662e+00  7.1426727793772100e+00  7.1426674620416710e+00  7.1426619919319485e+00  7.1426563646700574e+00  7.1426505757527412e+00  7.1426446205478866e+00  7.1426384942908427e+00  7.1426321920806277e+00  7.1426257088760225e+00  7.1426190394915681e+00  7.1426121785934287e+00  7.1426051206951522e+00  7.1425978601533018e+00  7.1425903911629609e+00  7.1425827077531112e+00  7.1425748037818861e+00  7.1425666729316681e+00  7.1425583087040705e+00  7.1425497044147521e+00  7.1425408531880938e+00  7.1425317479517290e+00  7.1425223814309025e+00  7.1425127461426809e+00  7.1425028343899859e+00  7.1424926382554581e+00  7.1424821495951498e+00  7.1424713600320349e+00  7.1424602609493277e+00  7.1424488434836171e+00  7.1424370985177923e+00  7.1424250166737746e+00  7.1424125883050396e+00  7.1423998034889156e+00  7.1423866520186641e+00  7.1423731233953509e+00  7.1423592068194406e+00  7.1423448911821863e+00  7.1423301650567721e+00  7.1423150166891629e+00  7.1422994339887307e+00  7.1422834045185830e+00  7.1422669154856351e+00  7.1422499537303716e+00  7.1422325057163398e+00  7.1422145575193081e+00  7.1421960948161276e+00  7.1421771028732870e+00  7.1421575665351060e+00  7.1421374702116003e+00  7.1421167978660103e+00  7.1420955330019389e+00  7.1420736586501485e+00  7.1420511573549419e+00  7.1420280111601775e+00  7.1420042015948653e+00  7.1419797096583517e+00  7.1419545158050610e+00  7.1419285999288071e+00  7.1419019413466405e+00  7.1418745187822399e+00  7.1418463103487939e+00  7.1418172935314219e+00  7.1417874451690500e+00  7.1417567414357714e+00  7.1417251578216687e+00  7.1416926691130689e+00  7.1416592493722399e+00  7.1416248719164575e+00  7.1415895092964998e+00  7.1415531332744955e+00  7.1415157148011250e+00  7.1414772239921582e+00  7.1414376301043010e+00  7.1413969015103449e+00  7.1413550056735620e+00  7.1413119091213959e+00  7.1412675774183256e+00  7.1412219751379826e+00  7.1411750658344104e+00  7.1411268120125033e+00  7.1410771750975615e+00  7.1410261154039567e+00  7.1409735921028803e+00  7.1409195631891302e+00  7.1408639854469165e+00  7.1408068144146721e+00  7.1407480043488052e+00  7.1406875081863967e+00  7.1406252775067944e+00  7.1405612624920449e+00  7.1404954118861808e+00  7.1404276729532974e+00  7.1403579914343585e+00  7.1402863115027753e+00  7.1402125757185901e+00  7.1401367249813603e+00  7.1400586984816155e+00  7.1399784336508523e+00  7.1398958661100744e+00  7.1398109296167762e+00  7.1397235560103249e+00  7.1396336751557552e+00  7.1395412148858357e+00  7.1394461009414