<?xml version="1.0"?>
<VTKFile type="UnstructuredGrid"  version="0.1"  >
<UnstructuredGrid>
<Piece  NumberOfPoints="1001" NumberOfCells="1000">
<Points>
<DataArray  type="Float64"  NumberOfComponents="3"  format="ascii">0 0 0  0.001 0 0  0.002 0 0  0.003 0 0  0.004 0 0  0.005 0 0  0.006 0 0  0.007 0 0  0.008 0 0  0.008999999999999999 0 0  0.01 0 0  0.011 0 0  0.012 0 0  0.013 0 0  0.014 0 0  0.015 0 0  0.016 0 0  0.017 0 0  0.018 0 0  0.019 0 0  0.02 0 0  0.021 0 0  0.022 0 0  0.023 0 0  0.024 0 0  0.025 0 0  0.026 0 0  0.027 0 0  0.028 0 0  0.029 0 0  0.03 0 0  0.031 0 0  0.032 0 0  0.033 0 0  0.034 0 0  0.035 0 0  0.036 0 0  0.037 0 0  0.038 0 0  0.039 0 0  0.04 0 0  0.041 0 0  0.042 0 0  0.043 0 0  0.044 0 0  0.045 0 0  0.046 0 0  0.047 0 0  0.048 0 0  0.049 0 0  0.05 0 0  0.051 0 0  0.052 0 0  0.053 0 0  0.054 0 0  0.055 0 0  0.056 0 0  0.057 0 0  0.058 0 0  0.059 0 0  0.06 0 0  0.061 0 0  0.062 0 0  0.063 0 0  0.064 0 0  0.065 0 0  0.066 0 0  0.067 0 0  0.068 0 0  0.06900000000000001 0 0  0.07000000000000001 0 0  0.07099999999999999 0 0  0.07199999999999999 0 0  0.073 0 0  0.074 0 0  0.075 0 0  0.076 0 0  0.077 0 0  0.078 0 0  0.079 0 0  0.08 0 0  0.081 0 0  0.082 0 0  0.083 0 0  0.08400000000000001 0 0  0.08500000000000001 0 0  0.08599999999999999 0 0  0.08699999999999999 0 0  0.08799999999999999 0 0  0.089 0 0  0.09 0 0  0.091 0 0  0.092 0 0  0.093 0 0  0.094 0 0  0.095 0 0  0.096 0 0  0.097 0 0  0.098 0 0  0.099 0 0  0.1 0 0  0.101 0 0  0.102 0 0  0.103 0 0  0.104 0 0  0.105 0 0  0.106 0 0  0.107 0 0  0.108 0 0  0.109 0 0  0.11 0 0  0.111 0 0  0.112 0 0  0.113 0 0  0.114 0 0  0.115 0 0  0.116 0 0  0.117 0 0  0.118 0 0  0.119 0 0  0.12 0 0  0.121 0 0  0.122 0 0  0.123 0 0  0.124 0 0  0.125 0 0  0.126 0 0  0.127 0 0  0.128 0 0  0.129 0 0  0.13 0 0  0.131 0 0  0.132 0 0  0.133 0 0  0.134 0 0  0.135 0 0  0.136 0 0  0.137 0 0  0.138 0 0  0.139 0 0  0.14 0 0  0.141 0 0  0.142 0 0  0.143 0 0  0.144 0 0  0.145 0 0  0.146 0 0  0.147 0 0  0.148 0 0  0.149 0 0  0.15 0 0  0.151 0 0  0.152 0 0  0.153 0 0  0.154 0 0  0.155 0 0  0.156 0 0  0.157 0 0  0.158 0 0  0.159 0 0  0.16 0 0  0.161 0 0  0.162 0 0  0.163 0 0  0.164 0 0  0.165 0 0  0.166 0 0  0.167 0 0  0.168 0 0  0.169 0 0  0.17 0 0  0.171 0 0  0.172 0 0  0.173 0 0  0.174 0 0  0.175 0 0  0.176 0 0  0.177 0 0  0.178 0 0  0.179 0 0  0.18 0 0  0.181 0 0  0.182 0 0  0.183 0 0  0.184 0 0  0.185 0 0  0.186 0 0  0.187 0 0  0.188 0 0  0.189 0 0  0.19 0 0  0.191 0 0  0.192 0 0  0.193 0 0  0.194 0 0  0.195 0 0  0.196 0 0  0.197 0 0  0.198 0 0  0.199 0 0  0.2 0 0  0.201 0 0  0.202 0 0  0.203 0 0  0.204 0 0  0.205 0 0  0.206 0 0  0.207 0 0  0.208 0 0  0.209 0 0  0.21 0 0  0.211 0 0  0.212 0 0  0.213 0 0  0.214 0 0  0.215 0 0  0.216 0 0  0.217 0 0  0.218 0 0  0.219 0 0  0.22 0 0  0.221 0 0  0.222 0 0  0.223 0 0  0.224 0 0  0.225 0 0  0.226 0 0  0.227 0 0  0.228 0 0  0.229 0 0  0.23 0 0  0.231 0 0  0.232 0 0  0.233 0 0  0.234 0 0  0.235 0 0  0.236 0 0  0.237 0 0  0.238 0 0  0.239 0 0  0.24 0 0  0.241 0 0  0.242 0 0  0.243 0 0  0.244 0 0  0.245 0 0  0.246 0 0  0.247 0 0  0.248 0 0  0.249 0 0  0.25 0 0  0.251 0 0  0.252 0 0  0.253 0 0  0.254 0 0  0.255 0 0  0.256 0 0  0.257 0 0  0.258 0 0  0.259 0 0  0.26 0 0  0.261 0 0  0.262 0 0  0.263 0 0  0.264 0 0  0.265 0 0  0.266 0 0  0.267 0 0  0.268 0 0  0.269 0 0  0.27 0 0  0.271 0 0  0.272 0 0  0.273 0 0  0.274 0 0  0.275 0 0  0.276 0 0  0.277 0 0  0.278 0 0  0.279 0 0  0.28 0 0  0.281 0 0  0.282 0 0  0.283 0 0  0.284 0 0  0.285 0 0  0.286 0 0  0.287 0 0  0.288 0 0  0.289 0 0  0.29 0 0  0.291 0 0  0.292 0 0  0.293 0 0  0.294 0 0  0.295 0 0  0.296 0 0  0.297 0 0  0.298 0 0  0.299 0 0  0.3 0 0  0.301 0 0  0.302 0 0  0.303 0 0  0.304 0 0  0.305 0 0  0.306 0 0  0.307 0 0  0.308 0 0  0.309 0 0  0.31 0 0  0.311 0 0  0.312 0 0  0.313 0 0  0.314 0 0  0.315 0 0  0.316 0 0  0.317 0 0  0.318 0 0  0.319 0 0  0.32 0 0  0.321 0 0  0.322 0 0  0.323 0 0  0.324 0 0  0.325 0 0  0.326 0 0  0.327 0 0  0.328 0 0  0.329 0 0  0.33 0 0  0.331 0 0  0.332 0 0  0.333 0 0  0.334 0 0  0.335 0 0  0.336 0 0  0.337 0 0  0.338 0 0  0.339 0 0  0.34 0 0  0.341 0 0  0.342 0 0  0.343 0 0  0.344 0 0  0.345 0 0  0.346 0 0  0.347 0 0  0.348 0 0  0.349 0 0  0.35 0 0  0.351 0 0  0.352 0 0  0.353 0 0  0.354 0 0  0.355 0 0  0.356 0 0  0.357 0 0  0.358 0 0  0.359 0 0  0.36 0 0  0.361 0 0  0.362 0 0  0.363 0 0  0.364 0 0  0.365 0 0  0.366 0 0  0.367 0 0  0.368 0 0  0.369 0 0  0.37 0 0  0.371 0 0  0.372 0 0  0.373 0 0  0.374 0 0  0.375 0 0  0.376 0 0  0.377 0 0  0.378 0 0  0.379 0 0  0.38 0 0  0.381 0 0  0.382 0 0  0.383 0 0  0.384 0 0  0.385 0 0  0.386 0 0  0.387 0 0  0.388 0 0  0.389 0 0  0.39 0 0  0.391 0 0  0.392 0 0  0.393 0 0  0.394 0 0  0.395 0 0  0.396 0 0  0.397 0 0  0.398 0 0  0.399 0 0  0.4 0 0  0.401 0 0  0.402 0 0  0.403 0 0  0.404 0 0  0.405 0 0  0.406 0 0  0.407 0 0  0.408 0 0  0.409 0 0  0.41 0 0  0.411 0 0  0.412 0 0  0.413 0 0  0.414 0 0  0.415 0 0  0.416 0 0  0.417 0 0  0.418 0 0  0.419 0 0  0.42 0 0  0.421 0 0  0.422 0 0  0.423 0 0  0.424 0 0  0.425 0 0  0.426 0 0  0.427 0 0  0.428 0 0  0.429 0 0  0.43 0 0  0.431 0 0  0.432 0 0  0.433 0 0  0.434 0 0  0.435 0 0  0.436 0 0  0.437 0 0  0.438 0 0  0.439 0 0  0.44 0 0  0.441 0 0  0.442 0 0  0.443 0 0  0.444 0 0  0.445 0 0  0.446 0 0  0.447 0 0  0.448 0 0  0.449 0 0  0.45 0 0  0.451 0 0  0.452 0 0  0.453 0 0  0.454 0 0  0.455 0 0  0.456 0 0  0.457 0 0  0.458 0 0  0.459 0 0  0.46 0 0  0.461 0 0  0.462 0 0  0.463 0 0  0.464 0 0  0.465 0 0  0.466 0 0  0.467 0 0  0.468 0 0  0.469 0 0  0.47 0 0  0.471 0 0  0.472 0 0  0.473 0 0  0.474 0 0  0.475 0 0  0.476 0 0  0.477 0 0  0.478 0 0  0.479 0 0  0.48 0 0  0.481 0 0  0.482 0 0  0.483 0 0  0.484 0 0  0.485 0 0  0.486 0 0  0.487 0 0  0.488 0 0  0.489 0 0  0.49 0 0  0.491 0 0  0.492 0 0  0.493 0 0  0.494 0 0  0.495 0 0  0.496 0 0  0.497 0 0  0.498 0 0  0.499 0 0  0.5 0 0  0.501 0 0  0.502 0 0  0.503 0 0  0.504 0 0  0.505 0 0  0.506 0 0  0.507 0 0  0.508 0 0  0.509 0 0  0.51 0 0  0.511 0 0  0.512 0 0  0.513 0 0  0.514 0 0  0.515 0 0  0.516 0 0  0.517 0 0  0.518 0 0  0.519 0 0  0.52 0 0  0.521 0 0  0.522 0 0  0.523 0 0  0.524 0 0  0.525 0 0  0.526 0 0  0.527 0 0  0.528 0 0  0.529 0 0  0.53 0 0  0.531 0 0  0.532 0 0  0.533 0 0  0.534 0 0  0.535 0 0  0.536 0 0  0.537 0 0  0.538 0 0  0.539 0 0  0.54 0 0  0.541 0 0  0.542 0 0  0.543 0 0  0.544 0 0  0.545 0 0  0.546 0 0  0.547 0 0  0.548 0 0  0.549 0 0  0.55 0 0  0.551 0 0  0.552 0 0  0.553 0 0  0.554 0 0  0.555 0 0  0.556 0 0  0.5570000000000001 0 0  0.5580000000000001 0 0  0.5590000000000001 0 0  0.5600000000000001 0 0  0.5610000000000001 0 0  0.5620000000000001 0 0  0.5629999999999999 0 0  0.5639999999999999 0 0  0.5649999999999999 0 0  0.5659999999999999 0 0  0.5669999999999999 0 0  0.5679999999999999 0 0  0.569 0 0  0.57 0 0  0.571 0 0  0.572 0 0  0.573 0 0  0.574 0 0  0.575 0 0  0.576 0 0  0.577 0 0  0.578 0 0  0.579 0 0  0.58 0 0  0.581 0 0  0.582 0 0  0.583 0 0  0.584 0 0  0.585 0 0  0.586 0 0  0.587 0 0  0.588 0 0  0.589 0 0  0.59 0 0  0.591 0 0  0.592 0 0  0.593 0 0  0.594 0 0  0.595 0 0  0.596 0 0  0.597 0 0  0.598 0 0  0.599 0 0  0.6 0 0  0.601 0 0  0.602 0 0  0.603 0 0  0.604 0 0  0.605 0 0  0.606 0 0  0.607 0 0  0.608 0 0  0.609 0 0  0.61 0 0  0.611 0 0  0.612 0 0  0.613 0 0  0.614 0 0  0.615 0 0  0.616 0 0  0.617 0 0  0.618 0 0  0.619 0 0  0.62 0 0  0.621 0 0  0.622 0 0  0.623 0 0  0.624 0 0  0.625 0 0  0.626 0 0  0.627 0 0  0.628 0 0  0.629 0 0  0.63 0 0  0.631 0 0  0.632 0 0  0.633 0 0  0.634 0 0  0.635 0 0  0.636 0 0  0.637 0 0  0.638 0 0  0.639 0 0  0.64 0 0  0.641 0 0  0.642 0 0  0.643 0 0  0.644 0 0  0.645 0 0  0.646 0 0  0.647 0 0  0.648 0 0  0.649 0 0  0.65 0 0  0.651 0 0  0.652 0 0  0.653 0 0  0.654 0 0  0.655 0 0  0.656 0 0  0.657 0 0  0.658 0 0  0.659 0 0  0.66 0 0  0.661 0 0  0.662 0 0  0.663 0 0  0.664 0 0  0.665 0 0  0.666 0 0  0.667 0 0  0.668 0 0  0.669 0 0  0.67 0 0  0.671 0 0  0.672 0 0  0.673 0 0  0.674 0 0  0.675 0 0  0.676 0 0  0.677 0 0  0.678 0 0  0.679 0 0  0.68 0 0  0.681 0 0  0.6820000000000001 0 0  0.6830000000000001 0 0  0.6840000000000001 0 0  0.6850000000000001 0 0  0.6860000000000001 0 0  0.6870000000000001 0 0  0.6879999999999999 0 0  0.6889999999999999 0 0  0.6899999999999999 0 0  0.6909999999999999 0 0  0.6919999999999999 0 0  0.6929999999999999 0 0  0.694 0 0  0.695 0 0  0.696 0 0  0.697 0 0  0.698 0 0  0.699 0 0  0.7 0 0  0.701 0 0  0.702 0 0  0.703 0 0  0.704 0 0  0.705 0 0  0.706 0 0  0.707 0 0  0.708 0 0  0.709 0 0  0.71 0 0  0.711 0 0  0.712 0 0  0.713 0 0  0.714 0 0  0.715 0 0  0.716 0 0  0.717 0 0  0.718 0 0  0.719 0 0  0.72 0 0  0.721 0 0  0.722 0 0  0.723 0 0  0.724 0 0  0.725 0 0  0.726 0 0  0.727 0 0  0.728 0 0  0.729 0 0  0.73 0 0  0.731 0 0  0.732 0 0  0.733 0 0  0.734 0 0  0.735 0 0  0.736 0 0  0.737 0 0  0.738 0 0  0.739 0 0  0.74 0 0  0.741 0 0  0.742 0 0  0.743 0 0  0.744 0 0  0.745 0 0  0.746 0 0  0.747 0 0  0.748 0 0  0.749 0 0  0.75 0 0  0.751 0 0  0.752 0 0  0.753 0 0  0.754 0 0  0.755 0 0  0.756 0 0  0.757 0 0  0.758 0 0  0.759 0 0  0.76 0 0  0.761 0 0  0.762 0 0  0.763 0 0  0.764 0 0  0.765 0 0  0.766 0 0  0.767 0 0  0.768 0 0  0.769 0 0  0.77 0 0  0.771 0 0  0.772 0 0  0.773 0 0  0.774 0 0  0.775 0 0  0.776 0 0  0.777 0 0  0.778 0 0  0.779 0 0  0.78 0 0  0.781 0 0  0.782 0 0  0.783 0 0  0.784 0 0  0.785 0 0  0.786 0 0  0.787 0 0  0.788 0 0  0.789 0 0  0.79 0 0  0.791 0 0  0.792 0 0  0.793 0 0  0.794 0 0  0.795 0 0  0.796 0 0  0.797 0 0  0.798 0 0  0.799 0 0  0.8 0 0  0.801 0 0  0.802 0 0  0.803 0 0  0.804 0 0  0.805 0 0  0.806 0 0  0.8070000000000001 0 0  0.8080000000000001 0 0  0.8090000000000001 0 0  0.8100000000000001 0 0  0.8110000000000001 0 0  0.8120000000000001 0 0  0.8129999999999999 0 0  0.8139999999999999 0 0  0.8149999999999999 0 0  0.8159999999999999 0 0  0.8169999999999999 0 0  0.8179999999999999 0 0  0.819 0 0  0.82 0 0  0.821 0 0  0.822 0 0  0.823 0 0  0.824 0 0  0.825 0 0  0.826 0 0  0.827 0 0  0.828 0 0  0.829 0 0  0.83 0 0  0.831 0 0  0.832 0 0  0.833 0 0  0.834 0 0  0.835 0 0  0.836 0 0  0.837 0 0  0.838 0 0  0.839 0 0  0.84 0 0  0.841 0 0  0
[...]
<PointData  Scalars="f_20-0"> 
<DataArray  type="Float64"  Name="f_20-0"  format="ascii">2.0000000000000004e+00  2.0000000000000000e+00  2.0000000000000004e+00  2.0000000000000000e+00  2.0000000000000000e+00  2.0000000000000009e+00  1.9999999999999998e+00  2.0000000000000004e+00  2.0000000000000004e+00  2.0000000000000004e+00  2.0000000000000004e+00  2.0000000000000004e+00  2.0000000000000004e+00  2.0000000000000004e+00  2.0000000000000004e+00  2.0000000000000004e+00  2.0000000000000004e+00  2.0000000000000004e+00  2.0000000000000004e+00  2.0000000000000004e+00  2.0000000000000004e+00  2.0000000000000004e+00  2.0000000000000004e+00  2.0000000000000004e+00  2.0000000000000004e+00  2.0000000000000004e+00  2.0000000000000004e+00  2.0000000000000004e+00  2.0000000000000004e+00  2.0000000000000004e+00  2.0000000000000004e+00  2.0000000000000004e+00  2.0000000000000004e+00  2.0000000000000004e+00  2.0000000000000009e+00  2.0000000000000022e+00  2.0000000000000036e+00  2.0000000000000058e+00  2.0000000000000089e+00  2.0000000000000133e+00  2.0000000000000178e+00  2.0000000000000244e+00  2.0000000000000333e+00  2.0000000000000449e+00  2.0000000000000577e+00  2.0000000000000728e+00  2.0000000000000902e+00  2.0000000000001119e+00  2.0000000000001363e+00  2.0000000000001665e+00  2.0000000000002038e+00  2.0000000000002478e+00  2.0000000000003002e+00  2.0000000000003624e+00  2.0000000000004374e+00  2.0000000000005276e+00  2.0000000000006342e+00  2.0000000000007629e+00  2.0000000000009170e+00  2.0000000000011022e+00  2.0000000000013225e+00  2.0000000000015863e+00  2.0000000000019016e+00  2.0000000000022773e+00  2.0000000000027258e+00  2.0000000000032614e+00  2.0000000000039013e+00  2.0000000000046629e+00  2.0000000000055720e+00  2.0000000000066538e+00  2.0000000000079421e+00  2.0000000000094760e+00  2.0000000000113007e+00  2.0000000000134701e+00  2.0000000000160489e+00  2.0000000000191127e+00  2.0000000000227516e+00  2.0000000000270726e+00  2.0000000000321996e+00  2.0000000000382796e+00  2.0000000000454885e+00  2.0000000000540306e+00  2.0000000000641496e+00  2.0000000000761298e+00  2.0000000000903078e+00  2.0000000001070788e+00  2.0000000001269100e+00  2.0000000001503473e+00  2.0000000001780336e+00  2.0000000002107270e+00  2.0000000002493157e+00  2.0000000002948402e+00  2.0000000003485230e+00  2.0000000004117990e+00  2.0000000004863510e+00  2.0000000005741470e+00  2.0000000006774949e+00  2.0000000007990941e+00  2.0000000009421037e+00  2.0000000011102208e+00  2.0000000013077623e+00  2.0000000015397750e+00  2.0000000018121544e+00  2.0000000021317796e+00  2.0000000025066766e+00  2.0000000029462064e+00  2.0000000034612815e+00  2.0000000040646189e+00  2.0000000047710236e+00  2.0000000055977303e+00  2.0000000065647940e+00  2.0000000076955380e+00  2.0000000090170720e+00  2.0000000105608948e+00  2.0000000123635862e+00  2.0000000144676062e+00  2.0000000169222227e+00  2.0000000197845660e+00  2.0000000231208612e+00  2.0000000270078355e+00  2.0000000315343409e+00  2.0000000368032276e+00  2.0000000429334865e+00  2.0000000500627224e+00  2.0000000583499853e+00  2.0000000679790282e+00  2.0000000791620418e+00  2.0000000921439440e+00  2.0000001072072857e+00  2.0000001246778862e+00  2.0000001449312719e+00  2.0000001684000619e+00  2.0000001955824041e+00  2.0000002270516251e+00  2.0000002634672671e+00  2.0000003055876849e+00  2.0000003542844311e+00  2.0000004105586782e+00  2.0000004755599314e+00  2.0000005506073810e+00  2.0000006372142156e+00  2.0000007371153119e+00  2.0000008522987516e+00  2.0000009850416776e+00  2.0000011379510507e+00  2.0000013140099746e+00  2.0000015166303045e+00  2.0000017497123661e+00  2.0000020177127160e+00  2.0000023257209745e+00  2.0000026795469008e+00  2.0000030858190398e+00  2.0000035520963877e+00  2.0000040869947533e+00  2.0000047003296650e+00  2.0000054032778913e+00  2.0000062085599040e+00  2.0000071306459017e+00  2.0000081859882854e+00  2.0000093932838561e+00  2.0000107737693500e+00  2.0000123515543851e+00  2.0000141539963368e+00  2.0000162121221776e+00  2.0000185611029044e+00  2.0000212407868037e+00  2.0000242962985042e+00  2.0000277787115541e+00  2.0000317458030983e+00  2.0000362629001911e+00  2.0000414038283094e+00  2.0000472519737840e+00  2.0000539014731125e+00  2.0000614585435219e+00  2.0000700429706377e+00  2.0000797897708074e+00  2.0000908510474336e+00  2.0001033980626715e+00  2.0001176235480198e+00  2.0001337442797222e+00  2.0001520039474823e+00  2.0001726763478209e+00  2.0001960689364795e+00  2.0002225267776024e+00  2.0002524369310453e+00  2.0002862333230884e+00  2.0003244021500217e+00  2.0003674878686901e+00  2.0004160998329197e+00  2.0004709196401049e+00  2.0005327092578247e+00  2.0006023200064305e+00  2.0006807024799826e+00  2.0007689174947645e+00  2.0008681481618535e+00  2.0009797131878830e+00  2.0011050815161759e+00  2.0012458884288300e+00  2.0014039532390830e+00  2.0015812987123285e+00  2.0017801723633726e+00  2.0020030697869400e+00  2.0022527601878810e+00  2.0025323142868388e+00  2.0028451347862117e+00  2.0031949895898591e+00  2.0035860479778904e+00  2.0040229199447039e+00  2.0045106989139678e+00  2.0050550080478780e+00  2.0056620503693492e+00  2.0063386629142466e+00  2.0070923751254877e+00  2.0079314716911565e+00  2.0088650600136786e+00  2.0099031424754830e+00  2.0110566936372081e+00  2.0123377424660092e+00  2.0137594596422579e+00  2.0153362499312117e+00  2.0170838495300316e+00  2.0190194282079474e+00  2.0211616959459446e+00  2.0235310136499742e+00  2.0261495073558349e+00  2.0290411851623698e+00  2.0322320559200917e+00  2.0357502484631502e+00  2.0396261299020835e+00  2.0438924211925107e+00  2.0485843078611343e+00  2.0537395434068149e+00  2.0593985425045389e+00  2.0656044607294701e+00  2.0724032570952589e+00  2.0798437352770276e+00  2.0879775589798957e+00  2.0968592365381129e+00  2.1065460695110665e+00  2.1170980598088898e+00  2.1285777697641310e+00  2.1410501296027387e+00  2.1545821869955204e+00  2.1692427938291234e+00  2.1851022260603110e+00  2.2022317335412143e+00  2.2207030180496679e+00  2.2405876394386444e+00  2.2619563518255750e+00  2.2848783740483114e+00  2.3094206011666532e+00  2.3356467665071747e+00  2.3636165665270283e+00  2.3933847634776160e+00  2.4250002833292084e+00  2.4585053285094767e+00  2.4939345265485300e+00  2.5313141365593914e+00  2.5706613354922365e+00  2.6119836052001055e+00  2.6552782395130046e+00  2.7005319877663294e+00  2.7477208476614119e+00  2.7968100161033558e+00  2.8477540019670409e+00  2.9004968998245926e+00  2.9549728187820814e+00  3.0111064559717979e+00  3.0688138001581091e+00  3.1280029475285964e+00  3.1885750091939506e+00  3.2504250882862915e+00  3.3134433038415523e+00  3.3775158388360547e+00  3.4425259907310872e+00  3.5083552045369744e+00  3.5748840705915170e+00  3.6419932717988774e+00  3.7095644678381379e+00  3.7774811066820466e+00  3.8456291565407725e+00  3.9138977539613276e+00  3.9821797661938971e+00  4.0503722680300438e+00  4.1183769350953057e+00  4.1861003570311865e+00  4.2534542751351143e+00  4.3203557498611973e+00  4.3867272641466339e+00  4.4524967688514252e+00  4.5175976767179566e+00  4.5819688112073393e+00  4.6455543163855255e+00  4.7083035337454708e+00  4.7701708514901666e+00  4.8311155313897762e+00  4.8911015178850770e+00  4.9500972336557361e+00  5.0080753654195282e+00  5.0650126432876572e+00  5.1208896165798681e+00  5.1756904286063818e+00  5.2294025925555658e+00  5.2820167702885836e+00  5.3335265555358156e+00  5.3839282627145613e+00  5.4332207223423126e+00  5.4814050838034847e+00  5.5284846260380318e+00  5.5744645765559868e+00  5.6193519390403814e+00  5.6631553296804169e+00  5.7058848222746468e+00  5.7475518020587391e+00  5.7881688281420063e+00  5.8277495043793648e+00  5.8663083584595492e+00  5.9038607289542639e+00  5.9404226600455114e+00  5.9760108036281840e+00  6.0106423284711248e+00  6.0443348361113065e+00  6.0771062831515881e+00  6.1089749096321571e+00  6.1399591731483261e+00  6.1700776883924382e+00  6.1993491718047755e+00  6.2277923910269424e+00  6.2554261188611564e+00  6.2822690914495301e+00  6.3083399703989231e+00  6.3336573085887178e+00  6.3582395194109420e+00  6.3821048492043388e+00  6.4052713526560270e+00  6.4277568709564532e+00  6.4495790125050174e+00  6.4707551359751987e+00  6.4913023355592188e+00  6.5112374282229224e+00  6.5305769428119387e+00  6.5493371108601552e+00  6.5675338589608909e+00  6.5851828025703929e+00  6.6022992411216768e+00  6.6188981543350849e+00  6.6349941996195589e+00  6.6506017104660042e+00  6.6657346957410200e+00  6.6804068397957765e+00  6.6946315033109993e+00  6.7084217248047020e+00  6.7217902227348434e+00  6.7347493981340971e+00  6.7473113377186351e+00  6.7594878174174529e+00  6.7712903062726939e+00  6.7827299706656090e+00  6.7938176788261062e+00  6.8045640055875580e+00  6.8149792373514089e+00  6.8250733772293097e+00  6.8348561503330592e+00  6.8443370091852920e+00  6.8535251392261793e+00  6.8624294643936237e+00  6.8710586527564113e+00  6.8794211221817942e+00  6.8875250460205653e+00  6.8953783587944875e+00  6.9029887618722734e+00  6.9103637291217881e+00  6.9175105125274579e+00  6.9244361477629450e+00  6.9311474597103162e+00  6.9376510679179280e+00  6.9439533919901271e+00  6.9500606569028101e+00  6.9559788982395245e+00  6.9617139673436474e+00  6.9672715363827820e+00  6.9726571033220504e+00  6.9778759968036281e+00  6.9829333809302572e+00  6.9878342599510432e+00  6.9925834828481266e+00  6.9971857478233161e+00  7.0016456066840673e+00  7.0059674691284428e+00  7.0101556069291497e+00  7.0142141580167134e+00  7.0181471304624337e+00  7.0219584063616107e+00  7.0256517456180205e+00  7.0292307896305477e+00  7.0326990648831691e+00  7.0360599864395441e+00  7.0393168613435924e+00  7.0424728919275319e+00  7.0455311790289077e+00  7.0484947251182541e+00  7.0513664373390537e+00  7.0541491304616546e+00  7.0568455297529740e+00  7.0594582737636626e+00  7.0619899170345777e+00  7.0644429327242833e+00  7.0668197151594327e+00  7.0691225823097463e+00  7.0713537781893914e+00  7.0735154751865084e+00  7.0756097763226657e+00  7.0776387174439126e+00  7.0796042693452268e+00  7.0815083398300676e+00  7.0833527757067163e+00  7.0851393647231964e+00  7.0868698374425012e+00  7.0885458690598986e+00  7.0901690811641203e+00  7.0917410434442987e+00  7.0932632753445519e+00  7.0947372476681725e+00  7.0961643841334308e+00  7.0975460628830964e+00  7.0988836179498138e+00  7.1001783406795456e+00  7.1014314811153323e+00  7.1026442493436406e+00  7.1038178168056136e+00  7.1049533175754647e+00  7.1060518496083134e+00  7.1071144759595120e+00  7.1081422259775833e+00  7.1091360964725618e+00  7.1100970528614136e+00  7.1110260302919395e+00  7.1119239347462262e+00  7.1127916441244849e+00  7.1136300093095794e+00  7.1144398552123835e+00  7.1152219817974434e+00  7.1159771650882764e+00  7.1167061581510094e+00  7.1174096920548200e+00  7.1180884768072579e+00  7.1187432022621770e+00  7.1193745389978274e+00  7.1199831391624695e+00  7.1205696372846807e+00  7.1211346510456579e+00  7.1216787820107577e+00  7.1222026163177352e+00  7.1227067253193530e+00  7.1231916661783856e+00  7.1236579824133770e+00  7.1241062043940637e+00  7.1245368497857404e+00  7.1249504239425105e+00  7.1253474202498355e+00  7.1257283204174025e+00  7.1260935947238346e+00  7.1264437022153171e+00  7.1267790908606790e+00  7.1271001976658548e+00  7.1274074487510406e+00  7.1277012593941329e+00  7.1279820340441926e+00  7.1282501663088400e+00  7.1285060389195483e+00  7.1287500236786485e+00  7.1289824813918914e+00  7.1292037617901292e+00  7.1294142034434920e+00  7.1296141336711134e+00  7.1298038684492449e+00  7.1299837123200742e+00  7.1301539583034081e+00  7.1303148878128910e+00  7.1304667705780753e+00  7.1306098645734322e+00  7.1307444159549176e+00  7.1308706590045254e+00  7.1309888160829260e+00  7.1310990975901571e+00  7.1312017019339535e+00  7.1312968155053591e+00  7.1313846126609812e+00  7.1314652557112135e+00  7.1315388949136809e+00  7.1316056684711135e+00  7.1316657025328789e+00  7.1317191111993479e+00  7.1317659965283706e+00  7.1318064485431272e+00  7.1318405452406797e+00  7.1318683526006463e+00  7.1318899245934579e+00  7.1319053031877475e+00  7.1319145183564663e+00  7.1319175880814925e+00  7.1319145183564654e+00  7.1319053031877493e+00  7.1318899245934571e+00  7.1318683526006454e+00  7.1318405452406823e+00  7.1318064485431316e+00  7.1317659965283733e+00  7.1317191111993514e+00  7.1316657025328825e+00  7.1316056684711135e+00  7.1315388949136773e+00  7.1314652557112117e+00  7.1313846126609794e+00  7.1312968155053582e+00  7.1312017019339535e+00  7.1310990975901580e+00  7.1309888160829287e+00  7.1308706590045254e+00  7.1307444159549203e+00  7.1306098645734339e+00  7.1304667705780744e+00  7.1303148878128910e+00  7.1301539583034099e+00  7.1299837123200733e+00  7.1298038684492440e+00  7.1296141336711116e+00  7.1294142034434902e+00  7.1292037617901309e+00  7.1289824813918923e+00  7.1287500236786494e+00  7.1285060389195491e+00  7.1282501663088409e+00  7.1279820340441917e+00  7.1277012593941338e+00  7.1274074487510406e+00  7.1271001976658548e+00  7.1267790908606790e+00  7.1264437022153180e+00  7.1260935947238337e+00  7.1257283204174016e+00  7.1253474202498346e+00  7.1249504239425052e+00  7.1245368497857342e+00  7.1241062043940593e+00  7.1236579824133734e+00  7.1231916661783812e+00  7.1227067253193539e+00  7.1222026163177379e+00  7.1216787820107612e+00  7.1211346510456606e+00  7.1205696372846852e+00  7.1199831391624731e+00  7.1193745389978282e+00  7.1187432022621717e+00  7.1180884768072552e+00  7.1174096920548138e+00  7.1167061581510023e+00  7.1159771650882719e+00  7.1152219817974398e+00  7.1144398552123800e+00  7.1136300093095794e+00  7.1127916441244805e+00  7.1119239347462244e+00  7.1110260302919377e+00  7.1100970528614154e+00  7.1091360964725645e+00  7.1081422259775824e+00  7.1071144759595093e+00  7.1060518496083098e+00  7.1049533175754629e+00  7.1038178168056154e+00  7.1026442493436459e+00  7.1014314811153341e+00  7.1001783406795473e+00  7.0988836179498138e+00  7.0975460628830982e+00  7.0961643841334334e+00  7.0947372476681725e+00  7.0932632753445510e+00  7.0917410434442987e+00  7.0901690811641211e+00  7.0885458690598986e+00  7.0868698374424994e+00  7.0851393647231946e+00  7.0833527757067154e+00  7.0815083398300649e+00  7.0796042693452250e+00  7.0776387174439090e+00  7.0756097763226631e+00  7.0735154751865075e+00  7.0713537781893869e+00  7.0691225823097463e+00  7.0668197151594327e+00  7.0644429327242824e+00  7.0619899170345777e+00  7.0594582737636635e+00  7.0568455297529740e+00  7.0541491304616555e+00  7.0513664373390537e+00  7.0484947251182541e+00  7.0455311790289086e+00  7.0424728919275319e+00  7.0393168613435924e+00  7.0360599864395441e+00  7.0326990648831700e+00  7.0292307896305477e+00  7.0256517456180205e+00  7.0219584063616107e+00  7.0181471304624337e+00  7.0142141580167179e+00  7.0101556069291506e+00  7.0059674691284490e+00  7.0016456066840682e+00  6.9971857478233179e+00  6.9925834828481266e+00  6.9878342599510432e+00  6.9829333809302581e+00  6.9778759968036290e+00  6.9726571033220539e+00  6.9672715363827828e+00  6.9617139673436466e+00  6.9559788982395245e+00  6.9500606569028136e+00  6.9439533919901297e+00  6.9376510679179288e+00  6.9311474597103180e+00  6.9244361477629468e+00  6.9175105125274587e+00  6.9103637291217872e+00  6.9029887618722716e+00  6.8953783587944875e+00  6.8875250460205661e+00  6.8794211221817925e+00  6.8710586527564113e+00  6.8624294643936237e+00  6.8535251392261820e+00  6.8443370091852929e+00  6.8348561503330600e+00  6.8250733772293115e+00  6.8149792373514080e+00  6.8045640055875563e+00  6.7938176788261053e+00  6.7827299706656081e+00  6.7712903062726948e+00  6.7594878174174511e+00  6.7473113377186369e+00  6.7347493981340971e+00  6.7217902227348452e+00  6.7084217248047029e+00  6.6946315033110011e+00  6.6804068397957783e+00  6.6657346957410208e+00  6.6506017104660042e+00  6.6349941996195589e+00  6.6188981543350849e+00  6.6022992411216768e+00  6.5851828025703929e+00  6.5675338589608945e+00  6.5493371108601561e+00  6.5305769428119413e+00  6.5112374282229197e+00  6.4913023355592179e+00  6.4707551359751969e+00  6.4495790125050174e+00  6.4277568709564541e+00  6.4052713526560261e+00  6.3821048492043388e+00  6.3582395194109420e+00  6.3336573085887178e+00  6.3083399703989231e+00  6.2822690914495292e+00  6.2554261188611573e+00  6.2277923910269433e+00  6.1993491718047782e+00  6.1700776883924435e+00  6.1399591731483296e+00  6.1089749096321571e+00  6.0771062831515872e+00  6.0443348361113083e+00  6.0106423284711257e+00  5.9760108036281796e+00  5.9404226600455097e+00  5.9038607289542622e+00  5.8663083584595475e+00  5.8277495043793621e+00  5.7881688281420010e+00  5.7475518020587355e+00  5.7058848222746503e+00  5.6631553296804240e+00  5.6193519390403868e+00  5.5744645765559930e+00  5.5284846260380416e+00  5.4814050838034900e+00  5.4332207223423161e+00  5.3839282627145630e+00  5.3335265555358173e+00  5.2820167702885836e+00  5.2294025925555658e+00  5.1756904286063810e+00  5.1208896165798699e+00  5.0650126432876581e+00  5.0080753654195327e+00  4.9500972336557414e+00  4.8911015178850832e+00  4.8311155313897816e+00  4.7701708514901719e+00  4.7083035337454744e+00  4.6455543163855273e+00  4.5819688112073438e+00  4.5175976767179638e+00  4.4524967688514314e+00  4.3867272641466402e+00  4.3203557498612044e+00  4.2534542751351214e+00  4.1861003570311945e+00  4.1183769350953146e+00  4.0503722680300518e+00  3.9821797661939047e+00  3.9138977539613307e+00  3.8456291565407748e+00  3.7774811066820497e+00  3.7095644678381396e+00  3.6419932717988788e+00  3.5748840705915201e+00  3.5083552045369766e+00  3.4425259907310890e+00  3.3775158388360560e+00  3.3134433038415541e+00  3.2504250882862942e+00  3.1885750091939520e+00  3.1280029475285973e+00  3.0688138001581109e+00  3.0111064559718019e+00  2.9549728187820845e+00  2.9004968998245952e+00  2.8477540019670440e+00  2.7968100161033589e+00  2.7477208476614150e+00  2.7005319877663316e+00  2.6552782395130072e+00  2.6119836052001077e+00  2.5706613354922387e+00  2.5313141365593932e+00  2.4939345265485313e+00  2.4585053285094789e+00  2.4250002833292092e+00  2.3933847634776186e+00  2.3636165665270306e+00  2.3356467665071756e+00  2.3094206011666545e+00  2.2848783740483118e+00  2.2619563518255763e+00  2.2405876394386439e+00  2.2207030180496687e+00  2.2022317335412152e+00  2.1851022260603123e+00  2.1692427938291261e+00  2.1545821869955235e+00  2.1410501296027395e+00  2.1285777697641315e+00  2.1170980598088898e+00  2.1065460695110665e+00  2.0968592365381116e+00  2.0879775589798952e+00  2.0798437352770276e+00  2.0724032570952584e+00  2.0656044607294684e+00  2.0593985425045380e+00  2.0537395434068140e+00  2.0485843078611343e+00  2.0438924211925098e+00  2.0396261299020826e+00  2.0357502484631511e+00  2.0322320559200935e+00  2.0290411851623720e+00  2.0261495073558362e+00  2.0235310136499738e+00  2.0211616959459437e+00  2.0190194282079461e+00  2.0170838495300316e+00  2.0153362499312122e+00  2.0137594596422583e+00  2.0123377424660096e+00  2.0110566936372098e+00  2.0099031424754843e+00  2.0088650600136781e+00  2.0079314716911569e+00  2.0070923751254885e+00  2.0063386629142466e+00  2.0056620503693483e+00  2.0050550080478762e+00  2.0045106989139660e+00  2.0040229199447008e+00  2.0035860479778878e+00  2.0031949895898573e+00  2.0028451347862104e+00  2.0025323142868396e+00  2.0022527601878806e+00  2.0020030697869391e+00  2.0017801723633721e+00  2.0015812987123280e+00  2.0014039532390822e+00  2.0012458884288300e+00  2.0011050815161768e+00  2.0009797131878830e+00  2.0008681481618535e+00  2.0007689174947645e+00  2.0006807024799826e+00  2.0006023200064305e+00  2.0005327092578247e+00  2.0004709196401049e+00  2.0004160998329192e+00  2.0003674878686906e+00  2.0003244021500231e+00  2.0002862333230871e+00  2.0002524369310448e+00  2.0002225267776024e+00  2.0001960689364813e+00  2.0001726763478214e+00  2.0001520039474814e+00  2.0001337442797213e+00  2.0001176235480189e+00  2.0001033980626719e+00  2.0000908510474353e+00  2.0000797897708091e+00  2.0000700429706404e+00  2.0000614585435232e+00  2.0000539014731129e+00  2.0000472519737