<?xml version="1.0"?>
<VTKFile type="UnstructuredGrid"  version="0.1"  >
<UnstructuredGrid>
<Piece  NumberOfPoints="1001" NumberOfCells="1000">
<Points>
<DataArray  type="Float64"  NumberOfComponents="3"  format="ascii">0 0 0  0.001 0 0  0.002 0 0  0.003 0 0  0.004 0 0  0.005 0 0  0.006 0 0  0.007 0 0  0.008 0 0  0.008999999999999999 0 0  0.01 0 0  0.011 0 0  0.012 0 0  0.013 0 0  0.014 0 0  0.015 0 0  0.016 0 0  0.017 0 0  0.018 0 0  0.019 0 0  0.02 0 0  0.021 0 0  0.022 0 0  0.023 0 0  0.024 0 0  0.025 0 0  0.026 0 0  0.027 0 0  0.028 0 0  0.029 0 0  0.03 0 0  0.031 0 0  0.032 0 0  0.033 0 0  0.034 0 0  0.035 0 0  0.036 0 0  0.037 0 0  0.038 0 0  0.039 0 0  0.04 0 0  0.041 0 0  0.042 0 0  0.043 0 0  0.044 0 0  0.045 0 0  0.046 0 0  0.047 0 0  0.048 0 0  0.049 0 0  0.05 0 0  0.051 0 0  0.052 0 0  0.053 0 0  0.054 0 0  0.055 0 0  0.056 0 0  0.057 0 0  0.058 0 0  0.059 0 0  0.06 0 0  0.061 0 0  0.062 0 0  0.063 0 0  0.064 0 0  0.065 0 0  0.066 0 0  0.067 0 0  0.068 0 0  0.06900000000000001 0 0  0.07000000000000001 0 0  0.07099999999999999 0 0  0.07199999999999999 0 0  0.073 0 0  0.074 0 0  0.075 0 0  0.076 0 0  0.077 0 0  0.078 0 0  0.079 0 0  0.08 0 0  0.081 0 0  0.082 0 0  0.083 0 0  0.08400000000000001 0 0  0.08500000000000001 0 0  0.08599999999999999 0 0  0.08699999999999999 0 0  0.08799999999999999 0 0  0.089 0 0  0.09 0 0  0.091 0 0  0.092 0 0  0.093 0 0  0.094 0 0  0.095 0 0  0.096 0 0  0.097 0 0  0.098 0 0  0.099 0 0  0.1 0 0  0.101 0 0  0.102 0 0  0.103 0 0  0.104 0 0  0.105 0 0  0.106 0 0  0.107 0 0  0.108 0 0  0.109 0 0  0.11 0 0  0.111 0 0  0.112 0 0  0.113 0 0  0.114 0 0  0.115 0 0  0.116 0 0  0.117 0 0  0.118 0 0  0.119 0 0  0.12 0 0  0.121 0 0  0.122 0 0  0.123 0 0  0.124 0 0  0.125 0 0  0.126 0 0  0.127 0 0  0.128 0 0  0.129 0 0  0.13 0 0  0.131 0 0  0.132 0 0  0.133 0 0  0.134 0 0  0.135 0 0  0.136 0 0  0.137 0 0  0.138 0 0  0.139 0 0  0.14 0 0  0.141 0 0  0.142 0 0  0.143 0 0  0.144 0 0  0.145 0 0  0.146 0 0  0.147 0 0  0.148 0 0  0.149 0 0  0.15 0 0  0.151 0 0  0.152 0 0  0.153 0 0  0.154 0 0  0.155 0 0  0.156 0 0  0.157 0 0  0.158 0 0  0.159 0 0  0.16 0 0  0.161 0 0  0.162 0 0  0.163 0 0  0.164 0 0  0.165 0 0  0.166 0 0  0.167 0 0  0.168 0 0  0.169 0 0  0.17 0 0  0.171 0 0  0.172 0 0  0.173 0 0  0.174 0 0  0.175 0 0  0.176 0 0  0.177 0 0  0.178 0 0  0.179 0 0  0.18 0 0  0.181 0 0  0.182 0 0  0.183 0 0  0.184 0 0  0.185 0 0  0.186 0 0  0.187 0 0  0.188 0 0  0.189 0 0  0.19 0 0  0.191 0 0  0.192 0 0  0.193 0 0  0.194 0 0  0.195 0 0  0.196 0 0  0.197 0 0  0.198 0 0  0.199 0 0  0.2 0 0  0.201 0 0  0.202 0 0  0.203 0 0  0.204 0 0  0.205 0 0  0.206 0 0  0.207 0 0  0.208 0 0  0.209 0 0  0.21 0 0  0.211 0 0  0.212 0 0  0.213 0 0  0.214 0 0  0.215 0 0  0.216 0 0  0.217 0 0  0.218 0 0  0.219 0 0  0.22 0 0  0.221 0 0  0.222 0 0  0.223 0 0  0.224 0 0  0.225 0 0  0.226 0 0  0.227 0 0  0.228 0 0  0.229 0 0  0.23 0 0  0.231 0 0  0.232 0 0  0.233 0 0  0.234 0 0  0.235 0 0  0.236 0 0  0.237 0 0  0.238 0 0  0.239 0 0  0.24 0 0  0.241 0 0  0.242 0 0  0.243 0 0  0.244 0 0  0.245 0 0  0.246 0 0  0.247 0 0  0.248 0 0  0.249 0 0  0.25 0 0  0.251 0 0  0.252 0 0  0.253 0 0  0.254 0 0  0.255 0 0  0.256 0 0  0.257 0 0  0.258 0 0  0.259 0 0  0.26 0 0  0.261 0 0  0.262 0 0  0.263 0 0  0.264 0 0  0.265 0 0  0.266 0 0  0.267 0 0  0.268 0 0  0.269 0 0  0.27 0 0  0.271 0 0  0.272 0 0  0.273 0 0  0.274 0 0  0.275 0 0  0.276 0 0  0.277 0 0  0.278 0 0  0.279 0 0  0.28 0 0  0.281 0 0  0.282 0 0  0.283 0 0  0.284 0 0  0.285 0 0  0.286 0 0  0.287 0 0  0.288 0 0  0.289 0 0  0.29 0 0  0.291 0 0  0.292 0 0  0.293 0 0  0.294 0 0  0.295 0 0  0.296 0 0  0.297 0 0  0.298 0 0  0.299 0 0  0.3 0 0  0.301 0 0  0.302 0 0  0.303 0 0  0.304 0 0  0.305 0 0  0.306 0 0  0.307 0 0  0.308 0 0  0.309 0 0  0.31 0 0  0.311 0 0  0.312 0 0  0.313 0 0  0.314 0 0  0.315 0 0  0.316 0 0  0.317 0 0  0.318 0 0  0.319 0 0  0.32 0 0  0.321 0 0  0.322 0 0  0.323 0 0  0.324 0 0  0.325 0 0  0.326 0 0  0.327 0 0  0.328 0 0  0.329 0 0  0.33 0 0  0.331 0 0  0.332 0 0  0.333 0 0  0.334 0 0  0.335 0 0  0.336 0 0  0.337 0 0  0.338 0 0  0.339 0 0  0.34 0 0  0.341 0 0  0.342 0 0  0.343 0 0  0.344 0 0  0.345 0 0  0.346 0 0  0.347 0 0  0.348 0 0  0.349 0 0  0.35 0 0  0.351 0 0  0.352 0 0  0.353 0 0  0.354 0 0  0.355 0 0  0.356 0 0  0.357 0 0  0.358 0 0  0.359 0 0  0.36 0 0  0.361 0 0  0.362 0 0  0.363 0 0  0.364 0 0  0.365 0 0  0.366 0 0  0.367 0 0  0.368 0 0  0.369 0 0  0.37 0 0  0.371 0 0  0.372 0 0  0.373 0 0  0.374 0 0  0.375 0 0  0.376 0 0  0.377 0 0  0.378 0 0  0.379 0 0  0.38 0 0  0.381 0 0  0.382 0 0  0.383 0 0  0.384 0 0  0.385 0 0  0.386 0 0  0.387 0 0  0.388 0 0  0.389 0 0  0.39 0 0  0.391 0 0  0.392 0 0  0.393 0 0  0.394 0 0  0.395 0 0  0.396 0 0  0.397 0 0  0.398 0 0  0.399 0 0  0.4 0 0  0.401 0 0  0.402 0 0  0.403 0 0  0.404 0 0  0.405 0 0  0.406 0 0  0.407 0 0  0.408 0 0  0.409 0 0  0.41 0 0  0.411 0 0  0.412 0 0  0.413 0 0  0.414 0 0  0.415 0 0  0.416 0 0  0.417 0 0  0.418 0 0  0.419 0 0  0.42 0 0  0.421 0 0  0.422 0 0  0.423 0 0  0.424 0 0  0.425 0 0  0.426 0 0  0.427 0 0  0.428 0 0  0.429 0 0  0.43 0 0  0.431 0 0  0.432 0 0  0.433 0 0  0.434 0 0  0.435 0 0  0.436 0 0  0.437 0 0  0.438 0 0  0.439 0 0  0.44 0 0  0.441 0 0  0.442 0 0  0.443 0 0  0.444 0 0  0.445 0 0  0.446 0 0  0.447 0 0  0.448 0 0  0.449 0 0  0.45 0 0  0.451 0 0  0.452 0 0  0.453 0 0  0.454 0 0  0.455 0 0  0.456 0 0  0.457 0 0  0.458 0 0  0.459 0 0  0.46 0 0  0.461 0 0  0.462 0 0  0.463 0 0  0.464 0 0  0.465 0 0  0.466 0 0  0.467 0 0  0.468 0 0  0.469 0 0  0.47 0 0  0.471 0 0  0.472 0 0  0.473 0 0  0.474 0 0  0.475 0 0  0.476 0 0  0.477 0 0  0.478 0 0  0.479 0 0  0.48 0 0  0.481 0 0  0.482 0 0  0.483 0 0  0.484 0 0  0.485 0 0  0.486 0 0  0.487 0 0  0.488 0 0  0.489 0 0  0.49 0 0  0.491 0 0  0.492 0 0  0.493 0 0  0.494 0 0  0.495 0 0  0.496 0 0  0.497 0 0  0.498 0 0  0.499 0 0  0.5 0 0  0.501 0 0  0.502 0 0  0.503 0 0  0.504 0 0  0.505 0 0  0.506 0 0  0.507 0 0  0.508 0 0  0.509 0 0  0.51 0 0  0.511 0 0  0.512 0 0  0.513 0 0  0.514 0 0  0.515 0 0  0.516 0 0  0.517 0 0  0.518 0 0  0.519 0 0  0.52 0 0  0.521 0 0  0.522 0 0  0.523 0 0  0.524 0 0  0.525 0 0  0.526 0 0  0.527 0 0  0.528 0 0  0.529 0 0  0.53 0 0  0.531 0 0  0.532 0 0  0.533 0 0  0.534 0 0  0.535 0 0  0.536 0 0  0.537 0 0  0.538 0 0  0.539 0 0  0.54 0 0  0.541 0 0  0.542 0 0  0.543 0 0  0.544 0 0  0.545 0 0  0.546 0 0  0.547 0 0  0.548 0 0  0.549 0 0  0.55 0 0  0.551 0 0  0.552 0 0  0.553 0 0  0.554 0 0  0.555 0 0  0.556 0 0  0.5570000000000001 0 0  0.5580000000000001 0 0  0.5590000000000001 0 0  0.5600000000000001 0 0  0.5610000000000001 0 0  0.5620000000000001 0 0  0.5629999999999999 0 0  0.5639999999999999 0 0  0.5649999999999999 0 0  0.5659999999999999 0 0  0.5669999999999999 0 0  0.5679999999999999 0 0  0.569 0 0  0.57 0 0  0.571 0 0  0.572 0 0  0.573 0 0  0.574 0 0  0.575 0 0  0.576 0 0  0.577 0 0  0.578 0 0  0.579 0 0  0.58 0 0  0.581 0 0  0.582 0 0  0.583 0 0  0.584 0 0  0.585 0 0  0.586 0 0  0.587 0 0  0.588 0 0  0.589 0 0  0.59 0 0  0.591 0 0  0.592 0 0  0.593 0 0  0.594 0 0  0.595 0 0  0.596 0 0  0.597 0 0  0.598 0 0  0.599 0 0  0.6 0 0  0.601 0 0  0.602 0 0  0.603 0 0  0.604 0 0  0.605 0 0  0.606 0 0  0.607 0 0  0.608 0 0  0.609 0 0  0.61 0 0  0.611 0 0  0.612 0 0  0.613 0 0  0.614 0 0  0.615 0 0  0.616 0 0  0.617 0 0  0.618 0 0  0.619 0 0  0.62 0 0  0.621 0 0  0.622 0 0  0.623 0 0  0.624 0 0  0.625 0 0  0.626 0 0  0.627 0 0  0.628 0 0  0.629 0 0  0.63 0 0  0.631 0 0  0.632 0 0  0.633 0 0  0.634 0 0  0.635 0 0  0.636 0 0  0.637 0 0  0.638 0 0  0.639 0 0  0.64 0 0  0.641 0 0  0.642 0 0  0.643 0 0  0.644 0 0  0.645 0 0  0.646 0 0  0.647 0 0  0.648 0 0  0.649 0 0  0.65 0 0  0.651 0 0  0.652 0 0  0.653 0 0  0.654 0 0  0.655 0 0  0.656 0 0  0.657 0 0  0.658 0 0  0.659 0 0  0.66 0 0  0.661 0 0  0.662 0 0  0.663 0 0  0.664 0 0  0.665 0 0  0.666 0 0  0.667 0 0  0.668 0 0  0.669 0 0  0.67 0 0  0.671 0 0  0.672 0 0  0.673 0 0  0.674 0 0  0.675 0 0  0.676 0 0  0.677 0 0  0.678 0 0  0.679 0 0  0.68 0 0  0.681 0 0  0.6820000000000001 0 0  0.6830000000000001 0 0  0.6840000000000001 0 0  0.6850000000000001 0 0  0.6860000000000001 0 0  0.6870000000000001 0 0  0.6879999999999999 0 0  0.6889999999999999 0 0  0.6899999999999999 0 0  0.6909999999999999 0 0  0.6919999999999999 0 0  0.6929999999999999 0 0  0.694 0 0  0.695 0 0  0.696 0 0  0.697 0 0  0.698 0 0  0.699 0 0  0.7 0 0  0.701 0 0  0.702 0 0  0.703 0 0  0.704 0 0  0.705 0 0  0.706 0 0  0.707 0 0  0.708 0 0  0.709 0 0  0.71 0 0  0.711 0 0  0.712 0 0  0.713 0 0  0.714 0 0  0.715 0 0  0.716 0 0  0.717 0 0  0.718 0 0  0.719 0 0  0.72 0 0  0.721 0 0  0.722 0 0  0.723 0 0  0.724 0 0  0.725 0 0  0.726 0 0  0.727 0 0  0.728 0 0  0.729 0 0  0.73 0 0  0.731 0 0  0.732 0 0  0.733 0 0  0.734 0 0  0.735 0 0  0.736 0 0  0.737 0 0  0.738 0 0  0.739 0 0  0.74 0 0  0.741 0 0  0.742 0 0  0.743 0 0  0.744 0 0  0.745 0 0  0.746 0 0  0.747 0 0  0.748 0 0  0.749 0 0  0.75 0 0  0.751 0 0  0.752 0 0  0.753 0 0  0.754 0 0  0.755 0 0  0.756 0 0  0.757 0 0  0.758 0 0  0.759 0 0  0.76 0 0  0.761 0 0  0.762 0 0  0.763 0 0  0.764 0 0  0.765 0 0  0.766 0 0  0.767 0 0  0.768 0 0  0.769 0 0  0.77 0 0  0.771 0 0  0.772 0 0  0.773 0 0  0.774 0 0  0.775 0 0  0.776 0 0  0.777 0 0  0.778 0 0  0.779 0 0  0.78 0 0  0.781 0 0  0.782 0 0  0.783 0 0  0.784 0 0  0.785 0 0  0.786 0 0  0.787 0 0  0.788 0 0  0.789 0 0  0.79 0 0  0.791 0 0  0.792 0 0  0.793 0 0  0.794 0 0  0.795 0 0  0.796 0 0  0.797 0 0  0.798 0 0  0.799 0 0  0.8 0 0  0.801 0 0  0.802 0 0  0.803 0 0  0.804 0 0  0.805 0 0  0.806 0 0  0.8070000000000001 0 0  0.8080000000000001 0 0  0.8090000000000001 0 0  0.8100000000000001 0 0  0.8110000000000001 0 0  0.8120000000000001 0 0  0.8129999999999999 0 0  0.8139999999999999 0 0  0.8149999999999999 0 0  0.8159999999999999 0 0  0.8169999999999999 0 0  0.8179999999999999 0 0  0.819 0 0  0.82 0 0  0.821 0 0  0.822 0 0  0.823 0 0  0.824 0 0  0.825 0 0  0.826 0 0  0.827 0 0  0.828 0 0  0.829 0 0  0.83 0 0  0.831 0 0  0.832 0 0  0.833 0 0  0.834 0 0  0.835 0 0  0.836 0 0  0.837 0 0  0.838 0 0  0.839 0 0  0.84 0 0  0.841 0 0  0
[...]
<PointData  Scalars="f_20-0"> 
<DataArray  type="Float64"  Name="f_20-0"  format="ascii">2.0000000030739931e+00  2.0000000031060932e+00  2.0000000032030236e+00  2.0000000033666900e+00  2.0000000036003049e+00  2.0000000039084478e+00  2.0000000042971506e+00  2.0000000047740065e+00  2.0000000053483089e+00  2.0000000060312204e+00  2.0000000068359771e+00  2.0000000077781261e+00  2.0000000088758072e+00  2.0000000101500781e+00  2.0000000116252936e+00  2.0000000133295384e+00  2.0000000152951247e+00  2.0000000175591670e+00  2.0000000201642334e+00  2.0000000231590911e+00  2.0000000265995603e+00  2.0000000305494794e+00  2.0000000350818103e+00  2.0000000402798936e+00  2.0000000462388723e+00  2.0000000530673128e+00  2.0000000608890445e+00  2.0000000698452438e+00  2.0000000800968070e+00  2.0000000918270269e+00  2.0000001052446397e+00  2.0000001205872699e+00  2.0000001381253294e+00  2.0000001581664386e+00  2.0000001810604244e+00  2.0000002072049727e+00  2.0000002370520229e+00  2.0000002711149940e+00  2.0000003099769534e+00  2.0000003542998348e+00  2.0000004048348576e+00  2.0000004624342758e+00  2.0000005280646427e+00  2.0000006028217676e+00  2.0000006879475793e+00  2.0000007848491284e+00  2.0000008951200048e+00  2.0000010205644450e+00  2.0000011632244830e+00  2.0000013254105005e+00  2.0000015097355925e+00  2.0000017191542128e+00  2.0000019570056198e+00  2.0000022270626894e+00  2.0000025335867488e+00  2.0000028813891455e+00  2.0000032759003457e+00  2.0000037232474717e+00  2.0000042303412542e+00  2.0000048049735213e+00  2.0000054559264493e+00  2.0000061930949524e+00  2.0000070276237314e+00  2.0000079720606858e+00  2.0000090405285684e+00  2.0000102489169769e+00  2.0000116150970109e+00  2.0000131591611661e+00  2.0000149036913339e+00  2.0000168740580695e+00  2.0000190987546462e+00  2.0000216097697865e+00  2.0000244430033738e+00  2.0000276387299061e+00  2.0000312421149689e+00  2.0000353037905381e+00  2.0000398804955513e+00  2.0000450357888426e+00  2.0000508408422739e+00  2.0000573753227031e+00  2.0000647283723123e+00  2.0000729996977689e+00  2.0000823007797837e+00  2.0000927562157500e+00  2.0001045052094395e+00  2.0001177032230877e+00  2.0001325238087291e+00  2.0001491606372666e+00  2.0001678297455467e+00  2.0001887720236700e+00  2.0002122559668516e+00  2.0002385807184706e+00  2.0002680794333969e+00  2.0003011229934105e+00  2.0003381241094056e+00  2.0003795418482389e+00  2.0004258866254596e+00  2.0004777257088100e+00  2.0005356892813055e+00  2.0006004771169219e+00  2.0006728659264073e+00  2.0007537174355594e+00  2.0008439872634387e+00  2.0009447346734270e+00  2.0010571332758373e+00  2.0011824827668563e+00  2.0013222217950304e+00  2.0014779420532274e+00  2.0016514037010027e+00  2.0018445522295534e+00  2.0020595368889231e+00  2.0022987308047404e+00  2.0025647529194788e+00  2.0028604919009454e+00  2.0031891321682687e+00  2.0035541821929930e+00  2.0039595052397541e+00  2.0044093527172597e+00  2.0049084003156046e+00  2.0054617871100744e+00  2.0060751578141409e+00  2.0067547083648654e+00  2.0075072350219658e+00  2.0083401871567119e+00  2.0092617238979509e+00  2.0102807747891127e+00  2.0114071045911257e+00  2.0126513823406902e+00  2.0140252547402717e+00  2.0155414239140041e+00  2.0172137295111718e+00  2.0190572350743374e+00  2.0210883185108672e+00  2.0233247664127174e+00  2.0257858718579427e+00  2.0284925351965857e+00  2.0314673671714121e+00  2.0347347935485929e+00  2.0383211602333287e+00  2.0422548376193363e+00  2.0465663226684692e+00  2.0512883369376240e+00  2.0564559184657880e+00  2.0621065051070779e+00  2.0682800065503404e+00  2.0750188619085979e+00  2.0823680794013497e+00  2.0903752543011529e+00  2.0990905609880937e+00  2.1085667146700793e+00  2.1188588981054632e+00  2.1300246485327881e+00  2.1421236999989173e+00  2.1552177764123801e+00  2.1693703309651542e+00  2.1846462280945120e+00  2.2011113649251413e+00  2.2188322301628660e+00  2.2378753997184364e+00  2.2583069699240386e+00  2.2801919310514980e+00  2.3035934859159930e+00  2.3285723205974089e+00  2.3551858366562737e+00  2.3834873565641814e+00  2.4135253162929198e+00  2.4453424609824537e+00  2.4789750612001713e+00  2.5144521683813794e+00  2.5517949284880248e+00  2.5910159726494406e+00  2.6321189025029312e+00  2.6750978861252452e+00  2.7199373778805169e+00  2.7666119722980955e+00  2.8150863983732313e+00  2.8653156566301266e+00  2.9172452971007630e+00  2.9708118322638000e+00  3.0259432751590274e+00  3.0825597895257184e+00  3.1405744360548722e+00  3.1998939967987914e+00  3.2604198585015252e+00  3.3220489351064320e+00  3.3846746099237159e+00  3.4481876788249806e+00  3.5124772772693618e+00  3.5774317758345422e+00  3.6429396310968438e+00  3.7088901810502630e+00  3.7751743766572301e+00  3.8416854434816572e+00  3.9083194695835815e+00  3.9749759178909279e+00  4.0415580630637304e+00  4.1079733544043258e+00  4.1741337076343861e+00  4.2399557293601529e+00  4.3053608787951898e+00  4.3702755718269897e+00  4.4346312328259261e+00  4.4983642997311470e+00  4.5614161879369872e+00  4.6237332183738120e+00  4.6852665149550354e+00  4.7459718762713976e+00  4.8058096260752539e+00  4.8647444467295271e+00  4.9227451994129900e+00  4.9797847344876827e+00  5.0358396950551247e+00  5.0908903163626018e+00  5.1449202233745508e+00  5.1979162285003753e+00  5.2498681311711373e+00  5.3007685206846107e+00  5.3506125834911415e+00  5.3993979158714893e+00  5.4471243427610370e+00  5.4937937433013655e+00  5.5394098835486378e+00  5.5839782566366427e+00  5.6275059305794164e+00  5.6700014038018320e+00  5.7114744684052514e+00  5.7519360811072406e+00  5.7913982417382659e+00  5.8298738791325402e+00  5.8673767442136340e+00  5.9039213100469148e+00  5.9395226786090864e+00  5.9741964940093126e+00  6.0079588618856521e+00  6.0408262746939725e+00  6.0728155426036325e+00  6.1039437297142856e+00  6.1342280953106885e+00  6.1636860398769873e+00  6.1923350555980861e+00  6.2201926810832004e+00  6.2472764600551338e+00  6.2736039037579880e+00  6.2991924568457298e+00  6.3240594665241261e+00  6.3482221547287550e+00  6.3716975931322253e+00  6.3945026807839236e+00  6.4166541241959161e+00  6.4381684196985312e+00  6.4590618378990179e+00  6.4793504100860799e+00  6.4990499164323339e+00  6.5181758758555608e+00  6.5367435374081220e+00  6.5547678730720484e+00  6.5722635718450899e+00  6.5892450350104035e+00  6.6057263724896353e+00  6.6217214001857547e+00  6.6372436382284254e+00  6.6523063100405926e+00  6.6669223421506718e+00  6.6811043646800199e+00  6.6948647124403831e+00  6.7082154265807770e+00  6.7211682567276094e+00  6.7337346635660982e+00  6.7459258218148683e+00  6.7577526235493037e+00  6.7692256818326388e+00  6.7803553346169769e+00  6.7911516488793726e+00  6.8016244249609752e+00  6.8117832010797494e+00  6.8216372579897726e+00  6.8311956237623477e+00  6.8404670786662551e+00  6.8494601601264540e+00  6.8581831677423262e+00  6.8666441683482793e+00  6.8748510011010593e+00  6.8828112825795884e+00  6.8905324118845002e+00  6.8980215757257755e+00  6.9052857534880365e+00  6.9123317222641347e+00  6.9191660618486512e+00  6.9257951596838190e+00  6.9322252157512452e+00  6.9384622474035629e+00  6.9445120941308600e+00  6.9503804222573899e+00  6.9560727295646743e+00  6.9615943498376396e+00  6.9669504573309728e+00  6.9721460711532952e+00  6.9771860595672290e+00  6.9820751442037814e+00  6.9868179041898300e+00  6.9914187801878374e+00  6.9958820783471847e+00  7.0002119741667839e+00  7.0044125162688990e+00  7.0084876300842680e+00  7.0124411214488740e+00  7.0162766801128287e+00  7.0199978831620289e+00  7.0236081983533731e+00  7.0271109873644546e+00  7.0305095089587395e+00  7.0338069220673409e+00  7.0370062887886267e+00  7.0401105773068844e+00  7.0431226647314222e+00  7.0460453398574732e+00  7.0488813058503421e+00  7.0516331828542720e+00  7.0543035105275314e+00  7.0568947505052453e+00  7.0594092887915094e+00  7.0618494380823522e+00  7.0642174400211006e+00  7.0665154673877204e+00  7.0687456262236736e+00  7.0709099578938979e+00  7.0730104410873960e+00  7.0750489937580374e+00  7.0770274750070534e+00  7.0789476869087622e+00  7.0808113762810043e+00  7.0826202364017616e+00  7.0843759086734286e+00  7.0860799842361413e+00  7.0877340055315878e+00  7.0893394678186761e+00  7.0908978206424109e+00  7.0924104692573229e+00  7.0938787760067328e+00  7.0953040616591441e+00  7.0966876067030116e+00  7.0980306526010937e+00  7.0993344030055905e+00  7.1006000249352361e+00  7.1018286499154808e+00  7.1030213750828537e+00  7.1041792642546264e+00  7.1053033489647879e+00  7.1063946294673981e+00  7.1074540757082829e+00  7.1084826282660813e+00  7.1094811992635529e+00  7.1104506732501003e+00  7.1113919080563850e+00  7.1123057356219128e+00  7.1131929627964334e+00  7.1140543721159695e+00  7.1148907225542857e+00  7.1157027502505716e+00  7.1164911692140782e+00  7.1172566720064463e+00  7.1179999304024459e+00  7.1187215960297854e+00  7.1194223009886919e+00  7.1201026584518825e+00  7.1207632632455606e+00  7.1214046924120575e+00  7.1220275057546836e+00  7.1226322463653826e+00  7.1232194411357277e+00  7.1237896012517998e+00  7.1243432226734651e+00  7.1248807865985659e+00  7.1254027599124781e+00  7.1259095956235630e+00  7.1264017332848981e+00  7.1268795994028054e+00  7.1273436078325316e+00  7.1277941601615575e+00  7.1282316460808843e+00  7.1286564437447346e+00  7.1290689201189954e+00  7.1294694313188058e+00  7.1298583229356121e+00  7.1302359303540532e+00  7.1306025790589889e+00  7.1309585849329977e+00  7.1313042545446557e+00  7.1316398854278811e+00  7.1319657663526419e+00  7.1322821775873164e+00  7.1325893911529556e+00  7.1328876710697120e+00  7.1331772735957166e+00  7.1334584474586009e+00  7.1337314340799320e+00  7.1339964677927972e+00  7.1342537760527138e+00  7.1345035796421357e+00  7.1347460928687205e+00  7.1349815237575713e+00  7.1352100742376567e+00  7.1354319403225697e+00  7.1356473122858413e+00  7.1358563748309427e+00  7.1360593072561809e+00  7.1362562836146379e+00  7.1364474728692953e+00  7.1366330390435291e+00  7.1368131413670834e+00  7.1369879344177125e+00  7.1371575682585879e+00  7.1373221885716207e+00  7.1374819367868376e+00  7.1376369502079164e+00  7.1377873621340209e+00  7.1379333019780393e+00  7.1380748953813447e+00  7.1382122643251940e+00  7.1383455272388536e+00  7.1384747991045696e+00  7.1386001915594859e+00  7.1387218129945840e+00  7.1388397686507599e+00  7.1389541607121121e+00  7.1390650883965359e+00  7.1391726480436883e+00  7.1392769332004367e+00  7.1393780347038209e+00  7.1394760407616369e+00  7.1395710370306835e+00  7.1396631066927680e+00  7.1397523305284745e+00  7.1398387869888218e+00  7.1399225522648102e+00  7.1400037003549155e+00  7.1400823031306011e+00  7.1401584303998478e+00  7.1402321499687682e+00  7.1403035277013380e+00  7.1403726275772543e+00  7.1404395117479575e+00  7.1405042405908494e+00  7.1405668727617231e+00  7.1406274652454025e+00  7.1406860734046536e+00  7.1407427510273349e+00  7.1407975503718228e+00  7.1408505222107355e+00  7.1409017158729426e+00  7.1409511792838929e+00  7.1409989590042722e+00  7.1410451002669886e+00  7.1410896470125325e+00  7.1411326419226899e+00  7.1411741264526727e+00  7.1412141408616465e+00  7.1412527242417108e+00  7.1412899145453537e+00  7.1413257486114015e+00  7.1413602621895071e+00  7.1413934899632157e+00  7.1414254655716380e+00  7.1414562216297863e+00  7.1414857897476081e+00  7.1415142005477819e+00  7.1415414836822961e+00  7.1415676678478972e+00  7.1415927808004378e+00  7.1416168493681758e+00  7.1416398994641046e+00  7.1416619560973382e+00  7.1416830433836322e+00  7.1417031845550705e+00  7.1417224019689947e+00  7.1417407171162024e+00  7.1417581506284940e+00  7.1417747222855787e+00  7.1417904510214347e+00  7.1418053549301073e+00  7.1418194512710462e+00  7.1418327564739661e+00  7.1418452861433099e+00  7.1418570550623297e+00  7.1418680771967971e+00  7.1418783656984086e+00  7.1418879329078830e+00  7.1418967903577801e+00  7.1419049487750677e+00  7.1419124180834430e+00  7.1419192074054330e+00  7.1419253250642925e+00  7.1419307785856860e+00  7.1419355746992030e+00  7.1419397193396783e+00  7.1419432176483522e+00  7.1419460739738527e+00  7.1419482918730335e+00  7.1419498741116447e+00  7.1419508226648478e+00  7.1419511387175962e+00  7.1419508226648478e+00  7.1419498741116447e+00  7.1419482918730335e+00  7.1419460739738527e+00  7.1419432176483522e+00  7.1419397193396783e+00  7.1419355746992030e+00  7.1419307785856860e+00  7.1419253250642925e+00  7.1419192074054330e+00  7.1419124180834430e+00  7.1419049487750677e+00  7.1418967903577801e+00  7.1418879329078830e+00  7.1418783656984086e+00  7.1418680771967971e+00  7.1418570550623297e+00  7.1418452861433099e+00  7.1418327564739661e+00  7.1418194512710462e+00  7.1418053549301073e+00  7.1417904510214347e+00  7.1417747222855787e+00  7.1417581506284940e+00  7.1417407171162024e+00  7.1417224019689947e+00  7.1417031845550705e+00  7.1416830433836322e+00  7.1416619560973391e+00  7.1416398994641037e+00  7.1416168493681758e+00  7.1415927808004378e+00  7.1415676678478981e+00  7.1415414836822952e+00  7.1415142005477810e+00  7.1414857897476081e+00  7.1414562216297854e+00  7.1414254655716380e+00  7.1413934899632157e+00  7.1413602621895071e+00  7.1413257486114015e+00  7.1412899145453528e+00  7.1412527242417090e+00  7.1412141408616456e+00  7.1411741264526727e+00  7.1411326419226899e+00  7.1410896470125316e+00  7.1410451002669877e+00  7.1409989590042722e+00  7.1409511792838929e+00  7.1409017158729426e+00  7.1408505222107346e+00  7.1407975503718228e+00  7.1407427510273340e+00  7.1406860734046536e+00  7.1406274652454025e+00  7.1405668727617231e+00  7.1405042405908494e+00  7.1404395117479575e+00  7.1403726275772543e+00  7.1403035277013371e+00  7.1402321499687673e+00  7.1401584303998460e+00  7.1400823031306011e+00  7.1400037003549146e+00  7.1399225522648084e+00  7.1398387869888209e+00  7.1397523305284736e+00  7.1396631066927672e+00  7.1395710370306835e+00  7.1394760407616369e+00  7.1393780347038209e+00  7.1392769332004367e+00  7.1391726480436883e+00  7.1390650883965359e+00  7.1389541607121112e+00  7.1388397686507590e+00  7.1387218129945831e+00  7.1386001915594841e+00  7.1384747991045678e+00  7.1383455272388519e+00  7.1382122643251948e+00  7.1380748953813464e+00  7.1379333019780402e+00  7.1377873621340209e+00  7.1376369502079173e+00  7.1374819367868394e+00  7.1373221885716216e+00  7.1371575682585870e+00  7.1369879344177125e+00  7.1368131413670826e+00  7.1366330390435282e+00  7.1364474728692961e+00  7.1362562836146379e+00  7.1360593072561809e+00  7.1358563748309427e+00  7.1356473122858413e+00  7.1354319403225714e+00  7.1352100742376567e+00  7.1349815237575713e+00  7.1347460928687205e+00  7.1345035796421366e+00  7.1342537760527138e+00  7.1339964677927972e+00  7.1337314340799320e+00  7.1334584474585983e+00  7.1331772735957140e+00  7.1328876710697102e+00  7.1325893911529539e+00  7.1322821775873164e+00  7.1319657663526419e+00  7.1316398854278811e+00  7.1313042545446574e+00  7.1309585849329986e+00  7.1306025790589889e+00  7.1302359303540532e+00  7.1298583229356129e+00  7.1294694313188058e+00  7.1290689201189954e+00  7.1286564437447346e+00  7.1282316460808843e+00  7.1277941601615575e+00  7.1273436078325316e+00  7.1268795994028054e+00  7.1264017332848981e+00  7.1259095956235630e+00  7.1254027599124781e+00  7.1248807865985659e+00  7.1243432226734651e+00  7.1237896012517998e+00  7.1232194411357277e+00  7.1226322463653826e+00  7.1220275057546836e+00  7.1214046924120575e+00  7.1207632632455606e+00  7.1201026584518825e+00  7.1194223009886919e+00  7.1187215960297854e+00  7.1179999304024459e+00  7.1172566720064463e+00  7.1164911692140782e+00  7.1157027502505716e+00  7.1148907225542857e+00  7.1140543721159695e+00  7.1131929627964334e+00  7.1123057356219128e+00  7.1113919080563859e+00  7.1104506732501012e+00  7.1094811992635556e+00  7.1084826282660840e+00  7.1074540757082856e+00  7.1063946294673981e+00  7.1053033489647888e+00  7.1041792642546273e+00  7.1030213750828537e+00  7.1018286499154808e+00  7.1006000249352361e+00  7.0993344030055896e+00  7.0980306526010919e+00  7.0966876067030116e+00  7.0953040616591423e+00  7.0938787760067328e+00  7.0924104692573247e+00  7.0908978206424127e+00  7.0893394678186761e+00  7.0877340055315878e+00  7.0860799842361413e+00  7.0843759086734295e+00  7.0826202364017616e+00  7.0808113762810052e+00  7.0789476869087640e+00  7.0770274750070552e+00  7.0750489937580392e+00  7.0730104410873968e+00  7.0709099578938988e+00  7.0687456262236728e+00  7.0665154673877186e+00  7.0642174400210997e+00  7.0618494380823513e+00  7.0594092887915094e+00  7.0568947505052462e+00  7.0543035105275314e+00  7.0516331828542711e+00  7.0488813058503412e+00  7.0460453398574723e+00  7.0431226647314222e+00  7.0401105773068844e+00  7.0370062887886267e+00  7.0338069220673409e+00  7.0305095089587377e+00  7.0271109873644519e+00  7.0236081983533696e+00  7.0199978831620244e+00  7.0162766801128269e+00  7.0124411214488731e+00  7.0084876300842680e+00  7.0044125162689008e+00  7.0002119741667856e+00  6.9958820783471865e+00  6.9914187801878391e+00  6.9868179041898308e+00  6.9820751442037814e+00  6.9771860595672308e+00  6.9721460711532961e+00  6.9669504573309728e+00  6.9615943498376396e+00  6.9560727295646743e+00  6.9503804222573899e+00  6.9445120941308609e+00  6.9384622474035638e+00  6.9322252157512469e+00  6.9257951596838199e+00  6.9191660618486521e+00  6.9123317222641347e+00  6.9052857534880365e+00  6.8980215757257772e+00  6.8905324118845002e+00  6.8828112825795884e+00  6.8748510011010593e+00  6.8666441683482802e+00  6.8581831677423271e+00  6.8494601601264558e+00  6.8404670786662578e+00  6.8311956237623486e+00  6.8216372579897744e+00  6.8117832010797512e+00  6.8016244249609787e+00  6.7911516488793744e+00  6.7803553346169778e+00  6.7692256818326397e+00  6.7577526235493055e+00  6.7459258218148692e+00  6.7337346635661000e+00  6.7211682567276103e+00  6.7082154265807779e+00  6.6948647124403857e+00  6.6811043646800226e+00  6.6669223421506745e+00  6.6523063100405935e+00  6.6372436382284254e+00  6.6217214001857547e+00  6.6057263724896353e+00  6.5892450350104035e+00  6.5722635718450899e+00  6.5547678730720493e+00  6.5367435374081237e+00  6.5181758758555626e+00  6.4990499164323356e+00  6.4793504100860817e+00  6.4590618378990197e+00  6.4381684196985329e+00  6.4166541241959170e+00  6.3945026807839236e+00  6.3716975931322253e+00  6.3482221547287550e+00  6.3240594665241261e+00  6.2991924568457298e+00  6.2736039037579872e+00  6.2472764600551329e+00  6.2201926810831987e+00  6.1923350555980852e+00  6.1636860398769873e+00  6.1342280953106885e+00  6.1039437297142847e+00  6.0728155426036343e+00  6.0408262746939743e+00  6.0079588618856548e+00  5.9741964940093144e+00  5.9395226786090882e+00  5.9039213100469166e+00  5.8673767442136349e+00  5.8298738791325420e+00  5.7913982417382677e+00  5.7519360811072424e+00  5.7114744684052541e+00  5.6700014038018347e+00  5.6275059305794191e+00  5.5839782566366445e+00  5.5394098835486396e+00  5.4937937433013690e+00  5.4471243427610387e+00  5.3993979158714938e+00  5.3506125834911442e+00  5.3007685206846142e+00  5.2498681311711399e+00  5.1979162285003770e+00  5.1449202233745535e+00  5.0908903163626027e+00  5.0358396950551256e+00  4.9797847344876853e+00  4.9227451994129909e+00  4.8647444467295289e+00  4.8058096260752565e+00  4.7459718762714012e+00  4.6852665149550381e+00  4.6237332183738138e+00  4.5614161879369872e+00  4.4983642997311470e+00  4.4346312328259261e+00  4.3702755718269897e+00  4.3053608787951898e+00  4.2399557293601529e+00  4.1741337076343861e+00  4.1079733544043258e+00  4.0415580630637304e+00  3.9749759178909283e+00  3.9083194695835823e+00  3.8416854434816585e+00  3.7751743766572314e+00  3.7088901810502639e+00  3.6429396310968456e+00  3.5774317758345431e+00  3.5124772772693702e+00  3.4481876788249890e+00  3.3846746099237230e+00  3.3220489351064391e+00  3.2604198585015323e+00  3.1998939967987980e+00  3.1405744360548784e+00  3.0825597895257233e+00  3.0259432751590327e+00  2.9708118322638053e+00  2.9172452971007679e+00  2.8653156566301332e+00  2.8150863983732375e+00  2.7666119722981013e+00  2.7199373778805227e+00  2.6750978861252510e+00  2.6321189025029