<?xml version="1.0"?>
<VTKFile type="UnstructuredGrid"  version="0.1"  >
<UnstructuredGrid>
<Piece  NumberOfPoints="1001" NumberOfCells="1000">
<Points>
<DataArray  type="Float64"  NumberOfComponents="3"  format="ascii">0 0 0  0.001 0 0  0.002 0 0  0.003 0 0  0.004 0 0  0.005 0 0  0.006 0 0  0.007 0 0  0.008 0 0  0.008999999999999999 0 0  0.01 0 0  0.011 0 0  0.012 0 0  0.013 0 0  0.014 0 0  0.015 0 0  0.016 0 0  0.017 0 0  0.018 0 0  0.019 0 0  0.02 0 0  0.021 0 0  0.022 0 0  0.023 0 0  0.024 0 0  0.025 0 0  0.026 0 0  0.027 0 0  0.028 0 0  0.029 0 0  0.03 0 0  0.031 0 0  0.032 0 0  0.033 0 0  0.034 0 0  0.035 0 0  0.036 0 0  0.037 0 0  0.038 0 0  0.039 0 0  0.04 0 0  0.041 0 0  0.042 0 0  0.043 0 0  0.044 0 0  0.045 0 0  0.046 0 0  0.047 0 0  0.048 0 0  0.049 0 0  0.05 0 0  0.051 0 0  0.052 0 0  0.053 0 0  0.054 0 0  0.055 0 0  0.056 0 0  0.057 0 0  0.058 0 0  0.059 0 0  0.06 0 0  0.061 0 0  0.062 0 0  0.063 0 0  0.064 0 0  0.065 0 0  0.066 0 0  0.067 0 0  0.068 0 0  0.06900000000000001 0 0  0.07000000000000001 0 0  0.07099999999999999 0 0  0.07199999999999999 0 0  0.073 0 0  0.074 0 0  0.075 0 0  0.076 0 0  0.077 0 0  0.078 0 0  0.079 0 0  0.08 0 0  0.081 0 0  0.082 0 0  0.083 0 0  0.08400000000000001 0 0  0.08500000000000001 0 0  0.08599999999999999 0 0  0.08699999999999999 0 0  0.08799999999999999 0 0  0.089 0 0  0.09 0 0  0.091 0 0  0.092 0 0  0.093 0 0  0.094 0 0  0.095 0 0  0.096 0 0  0.097 0 0  0.098 0 0  0.099 0 0  0.1 0 0  0.101 0 0  0.102 0 0  0.103 0 0  0.104 0 0  0.105 0 0  0.106 0 0  0.107 0 0  0.108 0 0  0.109 0 0  0.11 0 0  0.111 0 0  0.112 0 0  0.113 0 0  0.114 0 0  0.115 0 0  0.116 0 0  0.117 0 0  0.118 0 0  0.119 0 0  0.12 0 0  0.121 0 0  0.122 0 0  0.123 0 0  0.124 0 0  0.125 0 0  0.126 0 0  0.127 0 0  0.128 0 0  0.129 0 0  0.13 0 0  0.131 0 0  0.132 0 0  0.133 0 0  0.134 0 0  0.135 0 0  0.136 0 0  0.137 0 0  0.138 0 0  0.139 0 0  0.14 0 0  0.141 0 0  0.142 0 0  0.143 0 0  0.144 0 0  0.145 0 0  0.146 0 0  0.147 0 0  0.148 0 0  0.149 0 0  0.15 0 0  0.151 0 0  0.152 0 0  0.153 0 0  0.154 0 0  0.155 0 0  0.156 0 0  0.157 0 0  0.158 0 0  0.159 0 0  0.16 0 0  0.161 0 0  0.162 0 0  0.163 0 0  0.164 0 0  0.165 0 0  0.166 0 0  0.167 0 0  0.168 0 0  0.169 0 0  0.17 0 0  0.171 0 0  0.172 0 0  0.173 0 0  0.174 0 0  0.175 0 0  0.176 0 0  0.177 0 0  0.178 0 0  0.179 0 0  0.18 0 0  0.181 0 0  0.182 0 0  0.183 0 0  0.184 0 0  0.185 0 0  0.186 0 0  0.187 0 0  0.188 0 0  0.189 0 0  0.19 0 0  0.191 0 0  0.192 0 0  0.193 0 0  0.194 0 0  0.195 0 0  0.196 0 0  0.197 0 0  0.198 0 0  0.199 0 0  0.2 0 0  0.201 0 0  0.202 0 0  0.203 0 0  0.204 0 0  0.205 0 0  0.206 0 0  0.207 0 0  0.208 0 0  0.209 0 0  0.21 0 0  0.211 0 0  0.212 0 0  0.213 0 0  0.214 0 0  0.215 0 0  0.216 0 0  0.217 0 0  0.218 0 0  0.219 0 0  0.22 0 0  0.221 0 0  0.222 0 0  0.223 0 0  0.224 0 0  0.225 0 0  0.226 0 0  0.227 0 0  0.228 0 0  0.229 0 0  0.23 0 0  0.231 0 0  0.232 0 0  0.233 0 0  0.234 0 0  0.235 0 0  0.236 0 0  0.237 0 0  0.238 0 0  0.239 0 0  0.24 0 0  0.241 0 0  0.242 0 0  0.243 0 0  0.244 0 0  0.245 0 0  0.246 0 0  0.247 0 0  0.248 0 0  0.249 0 0  0.25 0 0  0.251 0 0  0.252 0 0  0.253 0 0  0.254 0 0  0.255 0 0  0.256 0 0  0.257 0 0  0.258 0 0  0.259 0 0  0.26 0 0  0.261 0 0  0.262 0 0  0.263 0 0  0.264 0 0  0.265 0 0  0.266 0 0  0.267 0 0  0.268 0 0  0.269 0 0  0.27 0 0  0.271 0 0  0.272 0 0  0.273 0 0  0.274 0 0  0.275 0 0  0.276 0 0  0.277 0 0  0.278 0 0  0.279 0 0  0.28 0 0  0.281 0 0  0.282 0 0  0.283 0 0  0.284 0 0  0.285 0 0  0.286 0 0  0.287 0 0  0.288 0 0  0.289 0 0  0.29 0 0  0.291 0 0  0.292 0 0  0.293 0 0  0.294 0 0  0.295 0 0  0.296 0 0  0.297 0 0  0.298 0 0  0.299 0 0  0.3 0 0  0.301 0 0  0.302 0 0  0.303 0 0  0.304 0 0  0.305 0 0  0.306 0 0  0.307 0 0  0.308 0 0  0.309 0 0  0.31 0 0  0.311 0 0  0.312 0 0  0.313 0 0  0.314 0 0  0.315 0 0  0.316 0 0  0.317 0 0  0.318 0 0  0.319 0 0  0.32 0 0  0.321 0 0  0.322 0 0  0.323 0 0  0.324 0 0  0.325 0 0  0.326 0 0  0.327 0 0  0.328 0 0  0.329 0 0  0.33 0 0  0.331 0 0  0.332 0 0  0.333 0 0  0.334 0 0  0.335 0 0  0.336 0 0  0.337 0 0  0.338 0 0  0.339 0 0  0.34 0 0  0.341 0 0  0.342 0 0  0.343 0 0  0.344 0 0  0.345 0 0  0.346 0 0  0.347 0 0  0.348 0 0  0.349 0 0  0.35 0 0  0.351 0 0  0.352 0 0  0.353 0 0  0.354 0 0  0.355 0 0  0.356 0 0  0.357 0 0  0.358 0 0  0.359 0 0  0.36 0 0  0.361 0 0  0.362 0 0  0.363 0 0  0.364 0 0  0.365 0 0  0.366 0 0  0.367 0 0  0.368 0 0  0.369 0 0  0.37 0 0  0.371 0 0  0.372 0 0  0.373 0 0  0.374 0 0  0.375 0 0  0.376 0 0  0.377 0 0  0.378 0 0  0.379 0 0  0.38 0 0  0.381 0 0  0.382 0 0  0.383 0 0  0.384 0 0  0.385 0 0  0.386 0 0  0.387 0 0  0.388 0 0  0.389 0 0  0.39 0 0  0.391 0 0  0.392 0 0  0.393 0 0  0.394 0 0  0.395 0 0  0.396 0 0  0.397 0 0  0.398 0 0  0.399 0 0  0.4 0 0  0.401 0 0  0.402 0 0  0.403 0 0  0.404 0 0  0.405 0 0  0.406 0 0  0.407 0 0  0.408 0 0  0.409 0 0  0.41 0 0  0.411 0 0  0.412 0 0  0.413 0 0  0.414 0 0  0.415 0 0  0.416 0 0  0.417 0 0  0.418 0 0  0.419 0 0  0.42 0 0  0.421 0 0  0.422 0 0  0.423 0 0  0.424 0 0  0.425 0 0  0.426 0 0  0.427 0 0  0.428 0 0  0.429 0 0  0.43 0 0  0.431 0 0  0.432 0 0  0.433 0 0  0.434 0 0  0.435 0 0  0.436 0 0  0.437 0 0  0.438 0 0  0.439 0 0  0.44 0 0  0.441 0 0  0.442 0 0  0.443 0 0  0.444 0 0  0.445 0 0  0.446 0 0  0.447 0 0  0.448 0 0  0.449 0 0  0.45 0 0  0.451 0 0  0.452 0 0  0.453 0 0  0.454 0 0  0.455 0 0  0.456 0 0  0.457 0 0  0.458 0 0  0.459 0 0  0.46 0 0  0.461 0 0  0.462 0 0  0.463 0 0  0.464 0 0  0.465 0 0  0.466 0 0  0.467 0 0  0.468 0 0  0.469 0 0  0.47 0 0  0.471 0 0  0.472 0 0  0.473 0 0  0.474 0 0  0.475 0 0  0.476 0 0  0.477 0 0  0.478 0 0  0.479 0 0  0.48 0 0  0.481 0 0  0.482 0 0  0.483 0 0  0.484 0 0  0.485 0 0  0.486 0 0  0.487 0 0  0.488 0 0  0.489 0 0  0.49 0 0  0.491 0 0  0.492 0 0  0.493 0 0  0.494 0 0  0.495 0 0  0.496 0 0  0.497 0 0  0.498 0 0  0.499 0 0  0.5 0 0  0.501 0 0  0.502 0 0  0.503 0 0  0.504 0 0  0.505 0 0  0.506 0 0  0.507 0 0  0.508 0 0  0.509 0 0  0.51 0 0  0.511 0 0  0.512 0 0  0.513 0 0  0.514 0 0  0.515 0 0  0.516 0 0  0.517 0 0  0.518 0 0  0.519 0 0  0.52 0 0  0.521 0 0  0.522 0 0  0.523 0 0  0.524 0 0  0.525 0 0  0.526 0 0  0.527 0 0  0.528 0 0  0.529 0 0  0.53 0 0  0.531 0 0  0.532 0 0  0.533 0 0  0.534 0 0  0.535 0 0  0.536 0 0  0.537 0 0  0.538 0 0  0.539 0 0  0.54 0 0  0.541 0 0  0.542 0 0  0.543 0 0  0.544 0 0  0.545 0 0  0.546 0 0  0.547 0 0  0.548 0 0  0.549 0 0  0.55 0 0  0.551 0 0  0.552 0 0  0.553 0 0  0.554 0 0  0.555 0 0  0.556 0 0  0.5570000000000001 0 0  0.5580000000000001 0 0  0.5590000000000001 0 0  0.5600000000000001 0 0  0.5610000000000001 0 0  0.5620000000000001 0 0  0.5629999999999999 0 0  0.5639999999999999 0 0  0.5649999999999999 0 0  0.5659999999999999 0 0  0.5669999999999999 0 0  0.5679999999999999 0 0  0.569 0 0  0.57 0 0  0.571 0 0  0.572 0 0  0.573 0 0  0.574 0 0  0.575 0 0  0.576 0 0  0.577 0 0  0.578 0 0  0.579 0 0  0.58 0 0  0.581 0 0  0.582 0 0  0.583 0 0  0.584 0 0  0.585 0 0  0.586 0 0  0.587 0 0  0.588 0 0  0.589 0 0  0.59 0 0  0.591 0 0  0.592 0 0  0.593 0 0  0.594 0 0  0.595 0 0  0.596 0 0  0.597 0 0  0.598 0 0  0.599 0 0  0.6 0 0  0.601 0 0  0.602 0 0  0.603 0 0  0.604 0 0  0.605 0 0  0.606 0 0  0.607 0 0  0.608 0 0  0.609 0 0  0.61 0 0  0.611 0 0  0.612 0 0  0.613 0 0  0.614 0 0  0.615 0 0  0.616 0 0  0.617 0 0  0.618 0 0  0.619 0 0  0.62 0 0  0.621 0 0  0.622 0 0  0.623 0 0  0.624 0 0  0.625 0 0  0.626 0 0  0.627 0 0  0.628 0 0  0.629 0 0  0.63 0 0  0.631 0 0  0.632 0 0  0.633 0 0  0.634 0 0  0.635 0 0  0.636 0 0  0.637 0 0  0.638 0 0  0.639 0 0  0.64 0 0  0.641 0 0  0.642 0 0  0.643 0 0  0.644 0 0  0.645 0 0  0.646 0 0  0.647 0 0  0.648 0 0  0.649 0 0  0.65 0 0  0.651 0 0  0.652 0 0  0.653 0 0  0.654 0 0  0.655 0 0  0.656 0 0  0.657 0 0  0.658 0 0  0.659 0 0  0.66 0 0  0.661 0 0  0.662 0 0  0.663 0 0  0.664 0 0  0.665 0 0  0.666 0 0  0.667 0 0  0.668 0 0  0.669 0 0  0.67 0 0  0.671 0 0  0.672 0 0  0.673 0 0  0.674 0 0  0.675 0 0  0.676 0 0  0.677 0 0  0.678 0 0  0.679 0 0  0.68 0 0  0.681 0 0  0.6820000000000001 0 0  0.6830000000000001 0 0  0.6840000000000001 0 0  0.6850000000000001 0 0  0.6860000000000001 0 0  0.6870000000000001 0 0  0.6879999999999999 0 0  0.6889999999999999 0 0  0.6899999999999999 0 0  0.6909999999999999 0 0  0.6919999999999999 0 0  0.6929999999999999 0 0  0.694 0 0  0.695 0 0  0.696 0 0  0.697 0 0  0.698 0 0  0.699 0 0  0.7 0 0  0.701 0 0  0.702 0 0  0.703 0 0  0.704 0 0  0.705 0 0  0.706 0 0  0.707 0 0  0.708 0 0  0.709 0 0  0.71 0 0  0.711 0 0  0.712 0 0  0.713 0 0  0.714 0 0  0.715 0 0  0.716 0 0  0.717 0 0  0.718 0 0  0.719 0 0  0.72 0 0  0.721 0 0  0.722 0 0  0.723 0 0  0.724 0 0  0.725 0 0  0.726 0 0  0.727 0 0  0.728 0 0  0.729 0 0  0.73 0 0  0.731 0 0  0.732 0 0  0.733 0 0  0.734 0 0  0.735 0 0  0.736 0 0  0.737 0 0  0.738 0 0  0.739 0 0  0.74 0 0  0.741 0 0  0.742 0 0  0.743 0 0  0.744 0 0  0.745 0 0  0.746 0 0  0.747 0 0  0.748 0 0  0.749 0 0  0.75 0 0  0.751 0 0  0.752 0 0  0.753 0 0  0.754 0 0  0.755 0 0  0.756 0 0  0.757 0 0  0.758 0 0  0.759 0 0  0.76 0 0  0.761 0 0  0.762 0 0  0.763 0 0  0.764 0 0  0.765 0 0  0.766 0 0  0.767 0 0  0.768 0 0  0.769 0 0  0.77 0 0  0.771 0 0  0.772 0 0  0.773 0 0  0.774 0 0  0.775 0 0  0.776 0 0  0.777 0 0  0.778 0 0  0.779 0 0  0.78 0 0  0.781 0 0  0.782 0 0  0.783 0 0  0.784 0 0  0.785 0 0  0.786 0 0  0.787 0 0  0.788 0 0  0.789 0 0  0.79 0 0  0.791 0 0  0.792 0 0  0.793 0 0  0.794 0 0  0.795 0 0  0.796 0 0  0.797 0 0  0.798 0 0  0.799 0 0  0.8 0 0  0.801 0 0  0.802 0 0  0.803 0 0  0.804 0 0  0.805 0 0  0.806 0 0  0.8070000000000001 0 0  0.8080000000000001 0 0  0.8090000000000001 0 0  0.8100000000000001 0 0  0.8110000000000001 0 0  0.8120000000000001 0 0  0.8129999999999999 0 0  0.8139999999999999 0 0  0.8149999999999999 0 0  0.8159999999999999 0 0  0.8169999999999999 0 0  0.8179999999999999 0 0  0.819 0 0  0.82 0 0  0.821 0 0  0.822 0 0  0.823 0 0  0.824 0 0  0.825 0 0  0.826 0 0  0.827 0 0  0.828 0 0  0.829 0 0  0.83 0 0  0.831 0 0  0.832 0 0  0.833 0 0  0.834 0 0  0.835 0 0  0.836 0 0  0.837 0 0  0.838 0 0  0.839 0 0  0.84 0 0  0.841 0 0  0
[...]
<PointData  Scalars="f_20-0"> 
<DataArray  type="Float64"  Name="f_20-0"  format="ascii">4.9064117551908710e+00  4.9080245493277248e+00  4.9128485989404282e+00  4.9208412404279063e+00  4.9319324691252273e+00  4.9460265410861473e+00  4.9630041186714138e+00  4.9827248709386183e+00  5.0050304248283677e+00  5.0297475545771597e+00  5.0566914947717025e+00  5.0856692665818661e+00  5.1164829161232639e+00  5.1489325774478329e+00  5.1828192890144420e+00  5.2179475102940422e+00  5.2541273031496640e+00  5.2911761597184173e+00  5.3289204738714631e+00  5.3671966663650759e+00  5.4058519842093409e+00  5.4447450024911310e+00  5.4837458620046693e+00  5.5227362788163399e+00  5.5616093626603780e+00  5.6002692802130021e+00  5.6386307972159413e+00  5.6766187304860205e+00  5.7141673373846968e+00  5.7512196666076383e+00  5.7877268904115189e+00  5.8236476347901824e+00  5.8589473207627494e+00  5.8935975269159941e+00  5.9275753806915423e+00  5.9608629836359217e+00  5.9934468739293845e+00  6.0253175279540150e+00  6.0564689014211925e+00  6.0868980096157577e+00  6.1166045455915441e+00  6.1455905346323005e+00  6.1738600229387730e+00  6.2014187982847240e+00  6.2282741402738822e+00  6.2544345978020566e+00  6.2799097913632140e+00  6.3047102379182700e+00  6.3288471961568682e+00  6.3523325301142872e+00  6.3751785892491624e+00  6.3973981032363678e+00  6.4190040898779293e+00  6.4400097746797886e+00  6.4604285207809928e+00  6.4802737680526610e+00  6.4995589803060794e+00  6.5182975996617794e+00  6.5365030072345078e+00  6.5541884893826712e+00  6.5713672088556070e+00  6.5880521802481562e+00  6.6042562492403745e+00  6.6199920751611430e+00  6.6352721164686788e+00  6.6501086187891412e+00  6.6645136051971443e+00  6.6784988684597364e+00  6.6920759649986312e+00  6.7052562103548885e+00  6.7180506759659941e+00  6.7304701870881161e+00  6.7425253217162204e+00  6.7542264103723397e+00  6.7655835366477675e+00  6.7766065383984291e+00  6.7873050095047178e+00  6.7976883021174803e+00  6.8077655293211157e+00  6.8175455681528270e+00  6.8270370629242247e+00  6.8362484287977772e+00  6.8451878555761301e+00  6.8538633116672241e+00  6.8622825481924643e+00  6.8704531032089813e+00  6.8783823060204785e+00  6.8860772815540505e+00  6.8935449547831009e+00  6.9007920551787825e+00  6.9078251211745227e+00  6.9146505046299973e+00  6.9212743752826400e+00  6.9277027251761885e+00  6.9339413730571335e+00  6.9399959687310400e+00  6.9458719973718859e+00  6.9515747837783204e+00  6.9571094965717357e+00  6.9624811523317467e+00  6.9676946196652745e+00  6.9727546232061428e+00  6.9776657475425523e+00  6.9824324410702969e+00  6.9870590197700384e+00  6.9915496709072995e+00  6.9959084566542291e+00  7.0001393176324367e+00  7.0042460763765408e+00  7.0082324407182446e+00  7.0121020070910305e+00  7.0158582637557165e+00  7.0195045939473211e+00  7.0230442789437921e+00  7.0264805010573337e+00  7.0298163465491523e+00  7.0330548084685551e+00  7.0361987894174121e+00  7.0392511042411012e+00  7.0422144826470667e+00  7.0450915717522342e+00  7.0478849385605367e+00  7.0505970723718656e+00  7.0532303871237598e+00  7.0557872236672123e+00  7.0582698519779807e+00  7.0606804733047568e+00  7.0630212222556503e+00  7.0652941688243427e+00  7.0675013203573540e+00  7.0696446234638017e+00  7.0717259658690699e+00  7.0737471782137611e+00  7.0757100357993155e+00  7.0776162602816663e+00  7.0794675213142719e+00  7.0812654381418563e+00  7.0830115811461809e+00  7.0847074733451381e+00  7.0863545918464235e+00  7.0879543692570648e+00  7.0895081950500121e+00  7.0910174168890032e+00  7.0924833419128941e+00  7.0939072379805941e+00  7.0952903348777481e+00  7.0966338254862738e+00  7.0979388669178345e+00  7.0992065816123011e+00  7.1004380584022488e+00  7.1016343535444797e+00  7.1027964917195652e+00  7.1039254670003613e+00  7.1050222437904340e+00  7.1060877577333139e+00  7.1071229165934291e+00  7.1081286011096347e+00  7.1091056658221277e+00  7.1100549398735930e+00  7.1109772277853578e+00  7.1118733102093374e+00  7.1127439446565148e+00  7.1135898662026849e+00  7.1144117881721698e+00  7.1152104028001881e+00  7.1159863818745537e+00  7.1167403773573499e+00  7.1174730219871902e+00  7.1181849298627018e+00  7.1188766970078055e+00  7.1195489019193632e+00  7.1202021060977643e+00  7.1208368545609710e+00  7.1214536763425667e+00  7.1220530849742847e+00  7.1226355789535427e+00  7.1232016421964319e+00  7.1237517444766221e+00  7.1242863418506657e+00  7.1248058770700746e+00  7.1253107799806283e+00  7.1258014679093264e+00  7.1262783460393404e+00  7.1267418077733788e+00  7.1271922350858166e+00  7.1276299988639567e+00  7.1280554592387606e+00  7.1284689659053768e+00  7.1288708584338218e+00  7.1292614665700693e+00  7.1296411105279187e+00  7.1300101012718837e+00  7.1303687407914138e+00  7.1307173223667046e+00  7.1310561308263836e+00  7.1313854427973062e+00  7.1317055269467353e+00  7.1320166442171180e+00  7.1323190480537288e+00  7.1326129846253536e+00  7.1328986930382996e+00  7.1331764055438676e+00  7.1334463477395662e+00  7.1337087387642066e+00  7.1339637914870941e+00  7.1342117126915081e+00  7.1344527032526379e+00  7.1346869583101515e+00  7.1349146674355621e+00  7.1351360147945666e+00  7.1353511793044957e+00  7.1355603347870451e+00  7.1357636501164166e+00  7.1359612893630331e+00  7.1361534119329537e+00  7.1363401727031066e+00  7.1365217221525077e+00  7.1366982064895543e+00  7.1368697677755275e+00  7.1370365440444292e+00  7.1371986694192504e+00  7.1373562742247936e+00  7.1375094850971488e+00  7.1376584250899313e+00  7.1378032137773717e+00  7.1379439673543619e+00  7.1380807987335535e+00  7.1382138176395884e+00  7.1383431307005569e+00  7.1384688415367599e+00  7.1385910508468768e+00  7.1387098564915856e+00  7.1388253535747515e+00  7.1389376345222146e+00  7.1390467891582929e+00  7.1391529047800368e+00  7.1392560662293176e+00  7.1393563559628186e+00  7.1394538541199744e+00  7.1395486385889511e+00  7.1396407850706867e+00  7.1397303671410821e+00  7.1398174563113876e+00  7.1399021220868306e+00  7.1399844320235557e+00  7.1400644517839025e+00  7.1401422451900967e+00  7.1402178742763800e+00  7.1402913993396462e+00  7.1403628789886051e+00  7.1404323701915375e+00  7.1404999283226704e+00  7.1405656072072148e+00  7.1406294591651269e+00  7.1406915350535840e+00  7.1407518843082620e+00  7.1408105549834255e+00  7.1408675937908646e+00  7.1409230461377131e+00  7.1409769561632004e+00  7.1410293667743323e+00  7.1410803196805706e+00  7.1411298554275140e+00  7.1411780134296032e+00  7.1412248320019325e+00  7.1412703483911146e+00  7.1413145988052893e+00  7.1413576184432674e+00  7.1413994415228617e+00  7.1414401013083904e+00  7.1414796301374173e+00  7.1415180594467254e+00  7.1415554197975579e+00  7.1415917409001359e+00  7.1416270516374949e+00  7.1416613800886308e+00  7.1416947535510023e+00  7.1417271985623909e+00  7.1417587409221497e+00  7.1417894057118412e+00  7.1418192173153052e+00  7.1418481994381491e+00  7.1418763751266958e+00  7.1419037667863936e+00  7.1419303961997080e+00  7.1419562845435127e+00  7.1419814524059850e+00  7.1420059198030277e+00  7.1420297061942390e+00  7.1420528304984154e+00  7.1420753111086333e+00  7.1420971659069012e+00  7.1421184122784007e+00  7.1421390671253322e+00  7.1421591468803616e+00  7.1421786675197030e+00  7.1421976445758260e+00  7.1422160931498047e+00  7.1422340279233341e+00  7.1422514631703926e+00  7.1422684127685967e+00  7.1422848902102123e+00  7.1423009086128895e+00  7.1423164807300745e+00  7.1423316189611290e+00  7.1423463353611893e+00  7.1423606416507264e+00  7.1423745492248463e+00  7.1423880691623394e+00  7.1424012122344660e+00  7.1424139889134981e+00  7.1424264093810299e+00  7.1424384835360542e+00  7.1424502210028038e+00  7.1424616311383833e+00  7.1424727230401963e+00  7.1424835055531419e+00  7.1424939872766338e+00  7.1425041765714168e+00  7.1425140815661834e+00  7.1425237101640207e+00  7.1425330700486676e+00  7.1425421686906017e+00  7.1425510133529651e+00  7.1425596110973029e+00  7.1425679687891686e+00  7.1425760931035560e+00  7.1425839905301833e+00  7.1425916673786327e+00  7.1425991297833553e+00  7.1426063837085145e+00  7.1426134349527217e+00  7.1426202891536130e+00  7.1426269517923302e+00  7.1426334281978452e+00  7.1426397235511860e+00  7.1426458428895394e+00  7.1426517911102341e+00  7.1426575729746249e+00  7.1426631931118578e+00  7.1426686560225336e+00  7.1426739660822731e+00  7.1426791275451880e+00  7.1426841445472382e+00  7.1426890211095095e+00  7.1426937611414054e+00  7.1426983684437317e+00  7.1427028467117175e+00  7.1427071995379290e+00  7.1427114304151278e+00  7.1427155427390270e+00  7.1427195398109848e+00  7.1427234248406188e+00  7.1427272009483520e+00  7.1427308711678759e+00  7.1427344384485689e+00  7.1427379056578140e+00  7.1427412755832904e+00  7.1427445509351664e+00  7.1427477343482559e+00  7.1427508283841075e+00  7.1427538355330302e+00  7.1427567582160716e+00  7.1427595987869337e+00  7.1427623595338448e+00  7.1427650426813676e+00  7.1427676503921695e+00  7.1427701847687342e+00  7.1427726478550282e+00  7.1427750416381297e+00  7.1427773680497983e+00  7.1427796289680110e+00  7.1427818262184557e+00  7.1427839615759732e+00  7.1427860367659735e+00  7.1427880534658019e+00  7.1427900133060724e+00  7.1427919178719641e+00  7.1427937687044789e+00  7.1427955673016710e+00  7.1427973151198270e+00  7.1427990135746331e+00  7.1428006640422970e+00  7.1428022678606427e+00  7.1428038263301756e+00  7.1428053407151140e+00  7.1428068122443991e+00  7.1428082421126691e+00  7.1428096314812137e+00  7.1428109814788945e+00  7.1428122932030460e+00  7.1428135677203519e+00  7.1428148060676895e+00  7.1428160092529618e+00  7.1428171782558936e+00  7.1428183140288217e+00  7.1428194174974422e+00  7.1428204895615597e+00  7.1428215310958016e+00  7.1428225429503103e+00  7.1428235259514281e+00  7.1428244809023509e+00  7.1428254085837777e+00  7.1428263097545237e+00  7.1428271851521341e+00  7.1428280354934683e+00  7.1428288614752740e+00  7.1428296637747435e+00  7.1428304430500553e+00  7.1428311999408987e+00  7.1428319350689877e+00  7.1428326490385539e+00  7.1428333424368313e+00  7.1428340158345289e+00  7.1428346697862786e+00  7.1428353048310855e+00  7.1428359214927601e+00  7.1428365202803299e+00  7.1428371016884542e+00  7.1428376661978108e+00  7.1428382142754874e+00  7.1428387463753538e+00  7.1428392629384234e+00  7.1428397643932007e+00  7.1428402511560360e+00  7.1428407236314442e+00  7.1428411822124378e+00  7.1428416272808342e+00  7.1428420592075659e+00  7.1428424783529740e+00  7.1428428850670898e+00  7.1428432796899228e+00  7.1428436625517309e+00  7.1428440339732768e+00  7.1428443942660858e+00  7.1428447437327005e+00  7.1428450826669092e+00  7.1428454113539877e+00  7.1428457300709267e+00  7.1428460390866411e+00  7.1428463386621956e+00  7.1428466290510038e+00  7.1428469104990286e+00  7.1428471832449825e+00  7.1428474475205075e+00  7.1428477035503626e+00  7.1428479515525991e+00  7.1428481917387341e+00  7.1428484243139101e+00  7.1428486494770622e+00  7.1428488674210708e+00  7.1428490783329144e+00  7.1428492823938106e+00  7.1428494797793611e+00  7.1428496706596851e+00  7.1428498551995547e+00  7.1428500335585161e+00  7.1428502058910208e+00  7.1428503723465351e+00  7.1428505330696650e+00  7.1428506882002560e+00  7.1428508378735112e+00  7.1428509822200832e+00  7.1428511213661814e+00  7.1428512554336674e+00  7.1428513845401405e+00  7.1428515087990307e+00  7.1428516283196872e+00  7.1428517432074559e+00  7.1428518535637595e+00  7.1428519594861699e+00  7.1428520610684894e+00  7.1428521584008102e+00  7.1428522515695896e+00  7.1428523406577034e+00  7.1428524257445201e+00  7.1428525069059488e+00  7.1428525842144976e+00  7.1428526577393283e+00  7.1428527275463045e+00  7.1428527936980437e+00  7.1428528562539544e+00  7.1428529152702884e+00  7.1428529708001696e+00  7.1428530228936458e+00  7.1428530715977168e+00  7.1428531169563678e+00  7.1428531590106017e+00  7.1428531977984733e+00  7.1428532333551047e+00  7.1428532657127235e+00  7.1428532949006769e+00  7.1428533209454566e+00  7.1428533438707138e+00  7.1428533636972800e+00  7.1428533804431771e+00  7.1428533941236374e+00  7.1428534047511043e+00  7.1428534123352510e+00  7.1428534168829776e+00  7.1428534183984267e+00  7.1428534168829776e+00  7.1428534123352510e+00  7.1428534047511061e+00  7.1428533941236383e+00  7.1428533804431789e+00  7.1428533636972809e+00  7.1428533438707156e+00  7.1428533209454574e+00  7.1428532949006778e+00  7.1428532657127244e+00  7.1428532333551047e+00  7.1428531977984715e+00  7.1428531590106017e+00  7.1428531169563660e+00  7.1428530715977159e+00  7.1428530228936449e+00  7.1428529708001678e+00  7.1428529152702858e+00  7.1428528562539544e+00  7.1428527936980437e+00  7.1428527275463045e+00  7.1428526577393283e+00  7.1428525842144976e+00  7.1428525069059488e+00  7.1428524257445201e+00  7.1428523406577034e+00  7.1428522515695896e+00  7.1428521584008102e+00  7.1428520610684902e+00  7.1428519594861717e+00  7.1428518535637604e+00  7.1428517432074576e+00  7.1428516283196872e+00  7.1428515087990307e+00  7.1428513845401405e+00  7.1428512554336674e+00  7.1428511213661823e+00  7.1428509822200832e+00  7.1428508378735112e+00  7.1428506882002560e+00  7.1428505330696650e+00  7.1428503723465351e+00  7.1428502058910217e+00  7.1428500335585170e+00  7.1428498551995556e+00  7.1428496706596869e+00  7.1428494797793620e+00  7.1428492823938114e+00  7.1428490783329153e+00  7.1428488674210708e+00  7.1428486494770622e+00  7.1428484243139101e+00  7.1428481917387341e+00  7.1428479515525991e+00  7.1428477035503626e+00  7.1428474475205075e+00  7.1428471832449825e+00  7.1428469104990286e+00  7.1428466290510038e+00  7.1428463386621956e+00  7.1428460390866411e+00  7.1428457300709267e+00  7.1428454113539877e+00  7.1428450826669092e+00  7.1428447437327005e+00  7.1428443942660858e+00  7.1428440339732751e+00  7.1428436625517300e+00  7.1428432796899211e+00  7.1428428850670871e+00  7.1428424783529714e+00  7.1428420592075641e+00  7.1428416272808324e+00  7.1428411822124351e+00  7.1428407236314433e+00  7.1428402511560360e+00  7.1428397643931998e+00  7.1428392629384216e+00  7.1428387463753538e+00  7.1428382142754874e+00  7.1428376661978108e+00  7.1428371016884551e+00  7.1428365202803326e+00  7.1428359214927619e+00  7.1428353048310873e+00  7.1428346697862786e+00  7.1428340158345298e+00  7.1428333424368331e+00  7.1428326490385539e+00  7.1428319350689877e+00  7.1428311999408987e+00  7.1428304430500553e+00  7.1428296637747426e+00  7.1428288614752722e+00  7.1428280354934675e+00  7.1428271851521332e+00  7.1428263097545228e+00  7.1428254085837759e+00  7.1428244809023491e+00  7.1428235259514254e+00  7.1428225429503094e+00  7.1428215310958016e+00  7.1428204895615606e+00  7.1428194174974422e+00  7.1428183140288208e+00  7.1428171782558927e+00  7.1428160092529609e+00  7.1428148060676895e+00  7.1428135677203519e+00  7.1428122932030460e+00  7.1428109814788936e+00  7.1428096314812137e+00  7.1428082421126691e+00  7.1428068122443991e+00  7.1428053407151140e+00  7.1428038263301756e+00  7.1428022678606427e+00  7.1428006640422970e+00  7.1427990135746331e+00  7.1427973151198270e+00  7.1427955673016710e+00  7.1427937687044789e+00  7.1427919178719641e+00  7.1427900133060724e+00  7.1427880534658010e+00  7.1427860367659743e+00  7.1427839615759741e+00  7.1427818262184566e+00  7.1427796289680128e+00  7.1427773680497983e+00  7.1427750416381297e+00  7.1427726478550282e+00  7.1427701847687342e+00  7.1427676503921695e+00  7.1427650426813676e+00  7.1427623595338448e+00  7.1427595987869337e+00  7.1427567582160716e+00  7.1427538355330302e+00  7.1427508283841075e+00  7.1427477343482559e+00  7.1427445509351664e+00  7.1427412755832904e+00  7.1427379056578140e+00  7.1427344384485689e+00  7.1427308711678759e+00  7.1427272009483520e+00  7.1427234248406188e+00  7.1427195398109848e+00  7.1427155427390270e+00  7.1427114304151278e+00  7.1427071995379290e+00  7.1427028467117175e+00  7.1426983684437317e+00  7.1426937611414054e+00  7.1426890211095095e+00  7.1426841445472382e+00  7.1426791275451880e+00  7.1426739660822731e+00  7.1426686560225336e+00  7.1426631931118578e+00  7.1426575729746249e+00  7.1426517911102341e+00  7.1426458428895394e+00  7.1426397235511860e+00  7.1426334281978452e+00  7.1426269517923302e+00  7.1426202891536130e+00  7.1426134349527217e+00  7.1426063837085145e+00  7.1425991297833553e+00  7.1425916673786327e+00  7.1425839905301824e+00  7.1425760931035569e+00  7.1425679687891703e+00  7.1425596110973038e+00  7.1425510133529659e+00  7.1425421686906025e+00  7.1425330700486676e+00  7.1425237101640207e+00  7.1425140815661834e+00  7.1425041765714168e+00  7.1424939872766338e+00  7.1424835055531419e+00  7.1424727230401963e+00  7.1424616311383833e+00  7.1424502210028038e+00  7.1424384835360542e+00  7.1424264093810299e+00  7.1424139889134981e+00  7.1424012122344660e+00  7.1423880691623403e+00  7.1423745492248472e+00  7.1423606416507264e+00  7.1423463353611920e+00  7.1423316189611299e+00  7.1423164807300754e+00  7.1423009086128904e+00  7.1422848902102123e+00  7.1422684127685967e+00  7.1422514631703926e+00  7.1422340279233341e+00  7.1422160931498047e+00  7.1421976445758260e+00  7.1421786675197030e+00  7.1421591468803616e+00  7.1421390671253322e+00  7.1421184122784007e+00  7.1420971659069012e+00  7.1420753111086333e+00  7.1420528304984154e+00  7.1420297061942390e+00  7.1420059198030277e+00  7.1419814524059850e+00  7.1419562845435127e+00  7.1419303961997072e+00  7.1419037667863927e+00  7.1418763751266932e+00  7.1418481994381464e+00  7.1418192173153008e+00  7.1417894057118376e+00  7.1417587409221470e+00  7.1417271985623891e+00  7.1416947535510014e+00  7.1416613800886317e+00  7.1416270516374967e+00  7.1415917409001377e+00  7.1415554197975579e+00  7.1415180594467254e+00  7.1414796301374173e+00  7.1414401013083895e+00  7.1413994415228608e+00  7.1413576184432666e+00  7.1413145988052857e+00  7.1412703483911120e+00  7.1412248320019316e+00  7.1411780134296015e+00  7.1411298554275113e+00  7.1410803196805697e+00  7.1410293667743305e+00  7.1409769561631986e+00  7.1409230461377122e+00  7.1408675937908637e+00  7.1408105549834255e+00  7.1407518843082620e+00  7.1406915350535840e+00  7.1406294591651269e+00  7.1405656072072148e+00  7.1404999283226704e+00  7.1404323701915393e+00  7.1403628789886069e+00  7.1402913993396462e+00  7.1402178742763809e+00  7.1401422451900967e+00  7.1400644517839025e+00  7.1399844320235548e+00  7.1399021220868306e+00  7.1398174563113859e+00  7.1397303671410812e+00  7.1396407850706849e+00  7.1395486385889493e+00  7.1394538541199735e+00  7.1393563559628186e+00  7.1392560662293176e+00  7.1391529047800368e+00  7.1390467891582929e+00  7.1389376345222146e+00  7.1388253535747515e+00  7.1387098564915856e+00  7.1385910508468768e+00  7.1384688415367599e+00  7.1383431307005569e+00  7.1382138176395884e+00  7.1380807987335535e+00  7.1379439673543619e+00  7.1378032137773717e+00  7.1376584250899313e+00  7.1375094850971488e+00  7.1373562742247936e+00  7.1371986694192504e+00  7.1370365440444292e+00  7.1368697677755275e+00  7.1366982064895543e+00  7.1365217221525077e+00  7.1363401727031066e+00  7.1361534119329537e+00  7.1359612893630331e+00  7.1357636501164166e+00  7.1355603347870451e+00  7.1353511793044957e+00  7.1351360147945666e+00  7.1349146674355621e+00  7.1346869583101515e+00  7.1344527032526379e+00  7.1342117126915081e+00  7.1339637914870941e+00  7.1337087387642066e+00  7.1334463477395662e+00  7.1331764055438676e+00  7.1328986930382996e+00  7.1326129846253554e+00  7.1323190480537297e+00  7.1320166442171198e+00  7.1317055269467353e+00  7.1313854427973062e+00  7.1310561308263836e+00  7.1307173223667046e+00  7.1303687407914129e+00  7.1300101012718820e+00  7.1296411105279169e+00  7.1292614665700675e+00  7.1288708584338227e+00  7.1284689659053795e+00  7.1280554592387615e+00  7.1276299988639584e+00  7.1271922350858175e+00  7.1267418077733788e+00  7.1262783460393404e+00  7.1258014679093264e+00  7.1253107799806283e+00  7.1248058770700746e+00  7.1242863418506657e+00  7.1237517444766221e+00  7.1232016421964319e+00  7.1226355789535427e+00  7.1220530849742847e+00  7.1214536763425667e+00  7.1208368545609710e+00  7.1202021060977