<?xml version="1.0"?>
<VTKFile type="UnstructuredGrid"  version="0.1"  >
<UnstructuredGrid>
<Piece  NumberOfPoints="1001" NumberOfCells="1000">
<Points>
<DataArray  type="Float64"  NumberOfComponents="3"  format="ascii">0 0 0  0.001 0 0  0.002 0 0  0.003 0 0  0.004 0 0  0.005 0 0  0.006 0 0  0.007 0 0  0.008 0 0  0.008999999999999999 0 0  0.01 0 0  0.011 0 0  0.012 0 0  0.013 0 0  0.014 0 0  0.015 0 0  0.016 0 0  0.017 0 0  0.018 0 0  0.019 0 0  0.02 0 0  0.021 0 0  0.022 0 0  0.023 0 0  0.024 0 0  0.025 0 0  0.026 0 0  0.027 0 0  0.028 0 0  0.029 0 0  0.03 0 0  0.031 0 0  0.032 0 0  0.033 0 0  0.034 0 0  0.035 0 0  0.036 0 0  0.037 0 0  0.038 0 0  0.039 0 0  0.04 0 0  0.041 0 0  0.042 0 0  0.043 0 0  0.044 0 0  0.045 0 0  0.046 0 0  0.047 0 0  0.048 0 0  0.049 0 0  0.05 0 0  0.051 0 0  0.052 0 0  0.053 0 0  0.054 0 0  0.055 0 0  0.056 0 0  0.057 0 0  0.058 0 0  0.059 0 0  0.06 0 0  0.061 0 0  0.062 0 0  0.063 0 0  0.064 0 0  0.065 0 0  0.066 0 0  0.067 0 0  0.068 0 0  0.06900000000000001 0 0  0.07000000000000001 0 0  0.07099999999999999 0 0  0.07199999999999999 0 0  0.073 0 0  0.074 0 0  0.075 0 0  0.076 0 0  0.077 0 0  0.078 0 0  0.079 0 0  0.08 0 0  0.081 0 0  0.082 0 0  0.083 0 0  0.08400000000000001 0 0  0.08500000000000001 0 0  0.08599999999999999 0 0  0.08699999999999999 0 0  0.08799999999999999 0 0  0.089 0 0  0.09 0 0  0.091 0 0  0.092 0 0  0.093 0 0  0.094 0 0  0.095 0 0  0.096 0 0  0.097 0 0  0.098 0 0  0.099 0 0  0.1 0 0  0.101 0 0  0.102 0 0  0.103 0 0  0.104 0 0  0.105 0 0  0.106 0 0  0.107 0 0  0.108 0 0  0.109 0 0  0.11 0 0  0.111 0 0  0.112 0 0  0.113 0 0  0.114 0 0  0.115 0 0  0.116 0 0  0.117 0 0  0.118 0 0  0.119 0 0  0.12 0 0  0.121 0 0  0.122 0 0  0.123 0 0  0.124 0 0  0.125 0 0  0.126 0 0  0.127 0 0  0.128 0 0  0.129 0 0  0.13 0 0  0.131 0 0  0.132 0 0  0.133 0 0  0.134 0 0  0.135 0 0  0.136 0 0  0.137 0 0  0.138 0 0  0.139 0 0  0.14 0 0  0.141 0 0  0.142 0 0  0.143 0 0  0.144 0 0  0.145 0 0  0.146 0 0  0.147 0 0  0.148 0 0  0.149 0 0  0.15 0 0  0.151 0 0  0.152 0 0  0.153 0 0  0.154 0 0  0.155 0 0  0.156 0 0  0.157 0 0  0.158 0 0  0.159 0 0  0.16 0 0  0.161 0 0  0.162 0 0  0.163 0 0  0.164 0 0  0.165 0 0  0.166 0 0  0.167 0 0  0.168 0 0  0.169 0 0  0.17 0 0  0.171 0 0  0.172 0 0  0.173 0 0  0.174 0 0  0.175 0 0  0.176 0 0  0.177 0 0  0.178 0 0  0.179 0 0  0.18 0 0  0.181 0 0  0.182 0 0  0.183 0 0  0.184 0 0  0.185 0 0  0.186 0 0  0.187 0 0  0.188 0 0  0.189 0 0  0.19 0 0  0.191 0 0  0.192 0 0  0.193 0 0  0.194 0 0  0.195 0 0  0.196 0 0  0.197 0 0  0.198 0 0  0.199 0 0  0.2 0 0  0.201 0 0  0.202 0 0  0.203 0 0  0.204 0 0  0.205 0 0  0.206 0 0  0.207 0 0  0.208 0 0  0.209 0 0  0.21 0 0  0.211 0 0  0.212 0 0  0.213 0 0  0.214 0 0  0.215 0 0  0.216 0 0  0.217 0 0  0.218 0 0  0.219 0 0  0.22 0 0  0.221 0 0  0.222 0 0  0.223 0 0  0.224 0 0  0.225 0 0  0.226 0 0  0.227 0 0  0.228 0 0  0.229 0 0  0.23 0 0  0.231 0 0  0.232 0 0  0.233 0 0  0.234 0 0  0.235 0 0  0.236 0 0  0.237 0 0  0.238 0 0  0.239 0 0  0.24 0 0  0.241 0 0  0.242 0 0  0.243 0 0  0.244 0 0  0.245 0 0  0.246 0 0  0.247 0 0  0.248 0 0  0.249 0 0  0.25 0 0  0.251 0 0  0.252 0 0  0.253 0 0  0.254 0 0  0.255 0 0  0.256 0 0  0.257 0 0  0.258 0 0  0.259 0 0  0.26 0 0  0.261 0 0  0.262 0 0  0.263 0 0  0.264 0 0  0.265 0 0  0.266 0 0  0.267 0 0  0.268 0 0  0.269 0 0  0.27 0 0  0.271 0 0  0.272 0 0  0.273 0 0  0.274 0 0  0.275 0 0  0.276 0 0  0.277 0 0  0.278 0 0  0.279 0 0  0.28 0 0  0.281 0 0  0.282 0 0  0.283 0 0  0.284 0 0  0.285 0 0  0.286 0 0  0.287 0 0  0.288 0 0  0.289 0 0  0.29 0 0  0.291 0 0  0.292 0 0  0.293 0 0  0.294 0 0  0.295 0 0  0.296 0 0  0.297 0 0  0.298 0 0  0.299 0 0  0.3 0 0  0.301 0 0  0.302 0 0  0.303 0 0  0.304 0 0  0.305 0 0  0.306 0 0  0.307 0 0  0.308 0 0  0.309 0 0  0.31 0 0  0.311 0 0  0.312 0 0  0.313 0 0  0.314 0 0  0.315 0 0  0.316 0 0  0.317 0 0  0.318 0 0  0.319 0 0  0.32 0 0  0.321 0 0  0.322 0 0  0.323 0 0  0.324 0 0  0.325 0 0  0.326 0 0  0.327 0 0  0.328 0 0  0.329 0 0  0.33 0 0  0.331 0 0  0.332 0 0  0.333 0 0  0.334 0 0  0.335 0 0  0.336 0 0  0.337 0 0  0.338 0 0  0.339 0 0  0.34 0 0  0.341 0 0  0.342 0 0  0.343 0 0  0.344 0 0  0.345 0 0  0.346 0 0  0.347 0 0  0.348 0 0  0.349 0 0  0.35 0 0  0.351 0 0  0.352 0 0  0.353 0 0  0.354 0 0  0.355 0 0  0.356 0 0  0.357 0 0  0.358 0 0  0.359 0 0  0.36 0 0  0.361 0 0  0.362 0 0  0.363 0 0  0.364 0 0  0.365 0 0  0.366 0 0  0.367 0 0  0.368 0 0  0.369 0 0  0.37 0 0  0.371 0 0  0.372 0 0  0.373 0 0  0.374 0 0  0.375 0 0  0.376 0 0  0.377 0 0  0.378 0 0  0.379 0 0  0.38 0 0  0.381 0 0  0.382 0 0  0.383 0 0  0.384 0 0  0.385 0 0  0.386 0 0  0.387 0 0  0.388 0 0  0.389 0 0  0.39 0 0  0.391 0 0  0.392 0 0  0.393 0 0  0.394 0 0  0.395 0 0  0.396 0 0  0.397 0 0  0.398 0 0  0.399 0 0  0.4 0 0  0.401 0 0  0.402 0 0  0.403 0 0  0.404 0 0  0.405 0 0  0.406 0 0  0.407 0 0  0.408 0 0  0.409 0 0  0.41 0 0  0.411 0 0  0.412 0 0  0.413 0 0  0.414 0 0  0.415 0 0  0.416 0 0  0.417 0 0  0.418 0 0  0.419 0 0  0.42 0 0  0.421 0 0  0.422 0 0  0.423 0 0  0.424 0 0  0.425 0 0  0.426 0 0  0.427 0 0  0.428 0 0  0.429 0 0  0.43 0 0  0.431 0 0  0.432 0 0  0.433 0 0  0.434 0 0  0.435 0 0  0.436 0 0  0.437 0 0  0.438 0 0  0.439 0 0  0.44 0 0  0.441 0 0  0.442 0 0  0.443 0 0  0.444 0 0  0.445 0 0  0.446 0 0  0.447 0 0  0.448 0 0  0.449 0 0  0.45 0 0  0.451 0 0  0.452 0 0  0.453 0 0  0.454 0 0  0.455 0 0  0.456 0 0  0.457 0 0  0.458 0 0  0.459 0 0  0.46 0 0  0.461 0 0  0.462 0 0  0.463 0 0  0.464 0 0  0.465 0 0  0.466 0 0  0.467 0 0  0.468 0 0  0.469 0 0  0.47 0 0  0.471 0 0  0.472 0 0  0.473 0 0  0.474 0 0  0.475 0 0  0.476 0 0  0.477 0 0  0.478 0 0  0.479 0 0  0.48 0 0  0.481 0 0  0.482 0 0  0.483 0 0  0.484 0 0  0.485 0 0  0.486 0 0  0.487 0 0  0.488 0 0  0.489 0 0  0.49 0 0  0.491 0 0  0.492 0 0  0.493 0 0  0.494 0 0  0.495 0 0  0.496 0 0  0.497 0 0  0.498 0 0  0.499 0 0  0.5 0 0  0.501 0 0  0.502 0 0  0.503 0 0  0.504 0 0  0.505 0 0  0.506 0 0  0.507 0 0  0.508 0 0  0.509 0 0  0.51 0 0  0.511 0 0  0.512 0 0  0.513 0 0  0.514 0 0  0.515 0 0  0.516 0 0  0.517 0 0  0.518 0 0  0.519 0 0  0.52 0 0  0.521 0 0  0.522 0 0  0.523 0 0  0.524 0 0  0.525 0 0  0.526 0 0  0.527 0 0  0.528 0 0  0.529 0 0  0.53 0 0  0.531 0 0  0.532 0 0  0.533 0 0  0.534 0 0  0.535 0 0  0.536 0 0  0.537 0 0  0.538 0 0  0.539 0 0  0.54 0 0  0.541 0 0  0.542 0 0  0.543 0 0  0.544 0 0  0.545 0 0  0.546 0 0  0.547 0 0  0.548 0 0  0.549 0 0  0.55 0 0  0.551 0 0  0.552 0 0  0.553 0 0  0.554 0 0  0.555 0 0  0.556 0 0  0.5570000000000001 0 0  0.5580000000000001 0 0  0.5590000000000001 0 0  0.5600000000000001 0 0  0.5610000000000001 0 0  0.5620000000000001 0 0  0.5629999999999999 0 0  0.5639999999999999 0 0  0.5649999999999999 0 0  0.5659999999999999 0 0  0.5669999999999999 0 0  0.5679999999999999 0 0  0.569 0 0  0.57 0 0  0.571 0 0  0.572 0 0  0.573 0 0  0.574 0 0  0.575 0 0  0.576 0 0  0.577 0 0  0.578 0 0  0.579 0 0  0.58 0 0  0.581 0 0  0.582 0 0  0.583 0 0  0.584 0 0  0.585 0 0  0.586 0 0  0.587 0 0  0.588 0 0  0.589 0 0  0.59 0 0  0.591 0 0  0.592 0 0  0.593 0 0  0.594 0 0  0.595 0 0  0.596 0 0  0.597 0 0  0.598 0 0  0.599 0 0  0.6 0 0  0.601 0 0  0.602 0 0  0.603 0 0  0.604 0 0  0.605 0 0  0.606 0 0  0.607 0 0  0.608 0 0  0.609 0 0  0.61 0 0  0.611 0 0  0.612 0 0  0.613 0 0  0.614 0 0  0.615 0 0  0.616 0 0  0.617 0 0  0.618 0 0  0.619 0 0  0.62 0 0  0.621 0 0  0.622 0 0  0.623 0 0  0.624 0 0  0.625 0 0  0.626 0 0  0.627 0 0  0.628 0 0  0.629 0 0  0.63 0 0  0.631 0 0  0.632 0 0  0.633 0 0  0.634 0 0  0.635 0 0  0.636 0 0  0.637 0 0  0.638 0 0  0.639 0 0  0.64 0 0  0.641 0 0  0.642 0 0  0.643 0 0  0.644 0 0  0.645 0 0  0.646 0 0  0.647 0 0  0.648 0 0  0.649 0 0  0.65 0 0  0.651 0 0  0.652 0 0  0.653 0 0  0.654 0 0  0.655 0 0  0.656 0 0  0.657 0 0  0.658 0 0  0.659 0 0  0.66 0 0  0.661 0 0  0.662 0 0  0.663 0 0  0.664 0 0  0.665 0 0  0.666 0 0  0.667 0 0  0.668 0 0  0.669 0 0  0.67 0 0  0.671 0 0  0.672 0 0  0.673 0 0  0.674 0 0  0.675 0 0  0.676 0 0  0.677 0 0  0.678 0 0  0.679 0 0  0.68 0 0  0.681 0 0  0.6820000000000001 0 0  0.6830000000000001 0 0  0.6840000000000001 0 0  0.6850000000000001 0 0  0.6860000000000001 0 0  0.6870000000000001 0 0  0.6879999999999999 0 0  0.6889999999999999 0 0  0.6899999999999999 0 0  0.6909999999999999 0 0  0.6919999999999999 0 0  0.6929999999999999 0 0  0.694 0 0  0.695 0 0  0.696 0 0  0.697 0 0  0.698 0 0  0.699 0 0  0.7 0 0  0.701 0 0  0.702 0 0  0.703 0 0  0.704 0 0  0.705 0 0  0.706 0 0  0.707 0 0  0.708 0 0  0.709 0 0  0.71 0 0  0.711 0 0  0.712 0 0  0.713 0 0  0.714 0 0  0.715 0 0  0.716 0 0  0.717 0 0  0.718 0 0  0.719 0 0  0.72 0 0  0.721 0 0  0.722 0 0  0.723 0 0  0.724 0 0  0.725 0 0  0.726 0 0  0.727 0 0  0.728 0 0  0.729 0 0  0.73 0 0  0.731 0 0  0.732 0 0  0.733 0 0  0.734 0 0  0.735 0 0  0.736 0 0  0.737 0 0  0.738 0 0  0.739 0 0  0.74 0 0  0.741 0 0  0.742 0 0  0.743 0 0  0.744 0 0  0.745 0 0  0.746 0 0  0.747 0 0  0.748 0 0  0.749 0 0  0.75 0 0  0.751 0 0  0.752 0 0  0.753 0 0  0.754 0 0  0.755 0 0  0.756 0 0  0.757 0 0  0.758 0 0  0.759 0 0  0.76 0 0  0.761 0 0  0.762 0 0  0.763 0 0  0.764 0 0  0.765 0 0  0.766 0 0  0.767 0 0  0.768 0 0  0.769 0 0  0.77 0 0  0.771 0 0  0.772 0 0  0.773 0 0  0.774 0 0  0.775 0 0  0.776 0 0  0.777 0 0  0.778 0 0  0.779 0 0  0.78 0 0  0.781 0 0  0.782 0 0  0.783 0 0  0.784 0 0  0.785 0 0  0.786 0 0  0.787 0 0  0.788 0 0  0.789 0 0  0.79 0 0  0.791 0 0  0.792 0 0  0.793 0 0  0.794 0 0  0.795 0 0  0.796 0 0  0.797 0 0  0.798 0 0  0.799 0 0  0.8 0 0  0.801 0 0  0.802 0 0  0.803 0 0  0.804 0 0  0.805 0 0  0.806 0 0  0.8070000000000001 0 0  0.8080000000000001 0 0  0.8090000000000001 0 0  0.8100000000000001 0 0  0.8110000000000001 0 0  0.8120000000000001 0 0  0.8129999999999999 0 0  0.8139999999999999 0 0  0.8149999999999999 0 0  0.8159999999999999 0 0  0.8169999999999999 0 0  0.8179999999999999 0 0  0.819 0 0  0.82 0 0  0.821 0 0  0.822 0 0  0.823 0 0  0.824 0 0  0.825 0 0  0.826 0 0  0.827 0 0  0.828 0 0  0.829 0 0  0.83 0 0  0.831 0 0  0.832 0 0  0.833 0 0  0.834 0 0  0.835 0 0  0.836 0 0  0.837 0 0  0.838 0 0  0.839 0 0  0.84 0 0  0.841 0 0  0
[...]
<PointData  Scalars="f_20-0"> 
<DataArray  type="Float64"  Name="f_20-0"  format="ascii">2.0000000000000004e+00  2.0000000000000000e+00  2.0000000000000004e+00  2.0000000000000000e+00  2.0000000000000000e+00  2.0000000000000009e+00  1.9999999999999998e+00  2.0000000000000004e+00  2.0000000000000004e+00  2.0000000000000004e+00  2.0000000000000004e+00  2.0000000000000004e+00  2.0000000000000004e+00  2.0000000000000004e+00  2.0000000000000004e+00  2.0000000000000004e+00  2.0000000000000004e+00  2.0000000000000004e+00  2.0000000000000004e+00  2.0000000000000004e+00  2.0000000000000004e+00  2.0000000000000004e+00  2.0000000000000004e+00  2.0000000000000004e+00  2.0000000000000004e+00  2.0000000000000004e+00  2.0000000000000004e+00  2.0000000000000004e+00  2.0000000000000004e+00  2.0000000000000004e+00  2.0000000000000004e+00  2.0000000000000004e+00  2.0000000000000004e+00  2.0000000000000004e+00  2.0000000000000004e+00  2.0000000000000000e+00  2.0000000000000004e+00  2.0000000000000009e+00  2.0000000000000000e+00  2.0000000000000004e+00  2.0000000000000004e+00  2.0000000000000004e+00  2.0000000000000004e+00  2.0000000000000009e+00  2.0000000000000018e+00  2.0000000000000036e+00  2.0000000000000058e+00  2.0000000000000098e+00  2.0000000000000155e+00  2.0000000000000231e+00  2.0000000000000333e+00  2.0000000000000440e+00  2.0000000000000564e+00  2.0000000000000711e+00  2.0000000000000884e+00  2.0000000000001088e+00  2.0000000000001346e+00  2.0000000000001643e+00  2.0000000000001998e+00  2.0000000000002434e+00  2.0000000000002958e+00  2.0000000000003584e+00  2.0000000000004330e+00  2.0000000000005231e+00  2.0000000000006328e+00  2.0000000000007629e+00  2.0000000000009188e+00  2.0000000000011058e+00  2.0000000000013292e+00  2.0000000000015969e+00  2.0000000000019176e+00  2.0000000000022999e+00  2.0000000000027573e+00  2.0000000000033045e+00  2.0000000000039586e+00  2.0000000000047393e+00  2.0000000000056732e+00  2.0000000000067866e+00  2.0000000000081157e+00  2.0000000000097016e+00  2.0000000000115907e+00  2.0000000000138409e+00  2.0000000000165206e+00  2.0000000000197100e+00  2.0000000000235056e+00  2.0000000000280180e+00  2.0000000000333813e+00  2.0000000000397531e+00  2.0000000000473213e+00  2.0000000000563039e+00  2.0000000000669607e+00  2.0000000000795985e+00  2.0000000000945786e+00  2.0000000001123266e+00  2.0000000001333453e+00  2.0000000001582263e+00  2.0000000001876641e+00  2.0000000002224780e+00  2.0000000002636309e+00  2.0000000003122547e+00  2.0000000003696803e+00  2.0000000004374709e+00  2.0000000005174572e+00  2.0000000006117906e+00  2.0000000007229937e+00  2.0000000008540244e+00  2.0000000010083445e+00  2.0000000011900116e+00  2.0000000014037718e+00  2.0000000016551800e+00  2.0000000019507298e+00  2.0000000022980129e+00  2.0000000027058955e+00  2.0000000031847311e+00  2.0000000037466035e+00  2.0000000044056065e+00  2.0000000051781748e+00  2.0000000060834617e+00  2.0000000071437762e+00  2.0000000083850908e+00  2.0000000098376325e+00  2.0000000115365584e+00  2.0000000135227416e+00  2.0000000158436766e+00  2.0000000185545259e+00  2.0000000217193268e+00  2.0000000254123846e+00  2.0000000297198759e+00  2.0000000347416971e+00  2.0000000405935894e+00  2.0000000474095914e+00  2.0000000553448514e+00  2.0000000645788707e+00  2.0000000753192171e+00  2.0000000878058022e+00  2.0000001023157812e+00  2.0000001191691794e+00  2.0000001387353472e+00  2.0000001614403433e+00  2.0000001877754063e+00  2.0000002183066456e+00  2.0000002536861334e+00  2.0000002946645856e+00  2.0000003421058583e+00  2.0000003970035061e+00  2.0000004604996890e+00  2.0000005339067553e+00  2.0000006187318404e+00  2.0000007167049283e+00  2.0000008298108058e+00  2.0000009603254636e+00  2.0000011108575135e+00  2.0000012843953030e+00  2.0000014843604847e+00  2.0000017146688704e+00  2.0000019797995536e+00  2.0000022848733554e+00  2.0000026357418119e+00  2.0000030390880670e+00  2.0000035025411953e+00  2.0000040348056736e+00  2.0000046458079219e+00  2.0000053468620824e+00  2.0000061508574380e+00  2.0000070724701988e+00  2.0000081284026745e+00  2.0000093376532151e+00  2.0000107218207188e+00  2.0000123054479357e+00  2.0000141164082721e+00  2.0000161863413632e+00  2.0000185511432882e+00  2.0000212515179379e+00  2.0000243335968193e+00  2.0000278496353578e+00  2.0000318587946984e+00  2.0000364280189471e+00  2.0000416330189350e+00  2.0000475593747620e+00  2.0000543037706828e+00  2.0000619753774105e+00  2.0000706973984261e+00  2.0000806087987018e+00  2.0000918662361102e+00  2.0001046462179208e+00  2.0001191475070428e+00  2.0001355938052021e+00  2.0001542367429330e+00  2.0001753592092664e+00  2.0001992790571714e+00  2.0002263532243512e+00  2.0002569823127572e+00  2.0002916156743002e+00  2.0003307570546585e+00  2.0003749708518779e+00  2.0004248890515659e+00  2.0004812189060304e+00  2.0005447514306214e+00  2.0006163707967954e+00  2.0006970647082101e+00  2.0007879358532432e+00  2.0008902145348877e+00  2.0010052725869234e+00  2.0011346386936157e+00  2.0012800152388590e+00  2.0014432968197293e+00  2.0016265905686845e+00  2.0018322384381255e+00  2.0020628416106372e+00  2.0023212872077698e+00  2.0026107774796329e+00  2.0029348616666400e+00  2.0032974707331692e+00  2.0037029551805610e+00  2.0041561261532803e+00  2.0046623000569066e+00  2.0052273469093933e+00  2.0058577426472186e+00  2.0065606256048585e+00  2.0073438573789182e+00  2.0082160882760882e+00  2.0091868275260070e+00  2.0102665184149191e+00  2.0114666184622680e+00  2.0127996847186727e+00  2.0142794642083808e+00  2.0159209894703736e+00  2.0177406790678312e+00  2.0197564428335038e+00  2.0219877914962225e+00  2.0244559501891430e+00  2.0271839751707725e+00  2.0301968728931672e+00  2.0335217203258247e+00  2.0371877851869566e+00  2.0412266444449969e+00  2.0456722991320695e+00  2.0505612831586761e+00  2.0559327634376179e+00  2.0618286282195366e+00  2.0682935601194883e+00  2.0753750898835626e+00  2.0831236265200141e+00  2.0915924590181727e+00  2.1008377245218903e+00  2.1109183375387803e+00  2.1218958745822483e+00  2.1338344085950038e+00  2.1468002876277397e+00  2.1608618525844636e+00  2.1760890894352314e+00  2.1925532121734190e+00  2.2103261739871862e+00  2.2294801056414619e+00  2.2500866819307164e+00  2.2722164192473397e+00  2.2959379097753012e+00  2.3213170004972357e+00  2.3484159280002093e+00  2.3772924228595866e+00  2.4079988000265984e+00  2.4405810539821191e+00  2.4750779792791784e+00  2.5115203383181357e+00  2.5499300986401257e+00  2.5903197615795914e+00  2.6326918027269892e+00  2.6770382423174413e+00  2.7233403604427737e+00  2.7715685680092350e+00  2.8216824398130704e+00  2.8736309112078557e+00  2.9273526348438081e+00  2.9827764891307260e+00  3.0398222256584284e+00  3.0984012390155344e+00  3.1584174394440208e+00  3.2197682066609232e+00  3.2823454020147471e+00  3.3460364159076592e+00  3.4107252280367204e+00  3.4762934593770041e+00  3.5426213968054538e+00  3.6095889736895423e+00  3.6770766924785701e+00  3.7449664781853405e+00  3.8131424544947925e+00  3.8814916369698911e+00  3.9499045403534807e+00  4.0182756992240689e+00  4.0865041032134268e+00  4.1544935496163848e+00  4.2221529175178922e+00  4.2893963685433629e+00  4.3561434800298890e+00  4.4223193168493342e+00  4.4878544483245335e+00  4.5526849167030425e+00  4.6167521635245654e+00  4.6800029199714990e+00  4.7423890669573581e+00  4.8038674703114603e+00  4.8643997959831626e+00  4.9239523097338269e+00  4.9824956653249632e+00  5.0400046847585926e+00  5.0964581336899721e+00  5.1518384947198683e+00  5.2061317408880381e+00  5.2593271113343567e+00  5.3114168907700012e+00  5.3623961941089773e+00  5.4122627573490014e+00  5.4610167355594790e+00  5.5086605086308555e+00  5.5551984952628048e+00  5.6006369755156724e+00  5.6449839221187172e+00  5.6882488406177059e+00  5.7304426183510939e+00  5.7715773821666465e+00  5.8116663647268716e+00  5.8507237792003961e+00  5.8887647020958847e+00  5.9258049639638353e+00  5.9618610476680907e+00  5.9969499939124820e+00  6.0310893136970458e+00  6.0642969073724595e+00  6.0965909899592354e+00  6.1279900223997688e+00  6.1585126484154999e+00  6.1881776366477599e+00  6.2170038277690427e+00  6.2450100862610167e+00  6.2722152565659917e+00  6.2986381233300177e+00  6.3242973754673946e+00  6.3492115737887005e+00  6.3733991219465151e+00  6.3968782404654370e+00  6.4196669436350460e+00  6.4417830190565315e+00  6.4632440096453001e+00  6.4840671979033955e+00  6.5042695922864722e+00  6.5238679155007189e+00  6.5428785945753427e+00  6.5613177525659712e+00  6.5792012017536674e+00  6.5965444382130869e+00  6.6133626376318020e+00  6.6296706522707769e+00  6.6454830089635069e+00  6.6608139080585875e+00  6.6756772232171189e+00  6.6900865019827505e+00  6.7040549670481475e+00  6.7175955181472462e+00  6.7307207345079556e+00  6.7434428778048980e+00  6.7557738955564064e+00  6.7677254249142651e+00  6.7793087967988317e+00  6.7905350403358442e+00  6.8014148875548077e+00  6.8119587783120954e+00  6.8221768654049786e+00  6.8320790198456685e+00  6.8416748362670203e+00  6.8509736384341027e+00  6.8599844848380638e+00  6.8687161743508796e+00  6.8771772519214602e+00  6.8853760142955718e+00  6.8933205157434818e+00  6.9010185737810543e+00  6.9084777748712707e+00  6.9157054800945339e+00  6.9227088307774594e+00  6.9294947540707801e+00  6.9360699684682361e+00  6.9424409892591701e+00  6.9486141339084719e+00  6.9545955273583031e+00  6.9603911072468678e+00  6.9660066290400184e+00  6.9714476710723012e+00  6.9767196394944682e+00  6.9818277731251053e+00  6.9867771482044470e+00  6.9915726830489238e+00  6.9962191426053595e+00  7.0007211429040916e+00  7.0050831554106523e+00  7.0093095112758990e+00  7.0134044054847422e+00  7.0173719009039122e+00  7.0212159322293370e+00  7.0249403098339567e+00  7.0285487235169182e+00  7.0320447461552593e+00  7.0354318372592921e+00  7.0387133464330409e+00  7.0418925167410888e+00  7.0449724879834035e+00  7.0479562998795870e+00  7.0508468951642103e+00  7.0536471225948123e+00  7.0563597398742148e+00  7.0589874164888622e+00  7.0615327364647937e+00  7.0639982010430229e+00  7.0663862312759944e+00  7.0686991705468909e+00  7.0709392870134966e+00  7.0731087759785103e+00  7.0752097621880381e+00  7.0772443020603015e+00  7.0792143858464049e+00  7.0811219397253504e+00  7.0829688278353817e+00  7.0847568542439792e+00  7.0864877648588989e+00  7.0881632492827755e+00  7.0897849426139716e+00  7.0913544271964177e+00  7.0928732343213765e+00  7.0943428458840909e+00  7.0957646959983594e+00  7.0971401725721242e+00  7.0984706188470925e+00  7.0997573349053917e+00  7.1010015791460424e+00  7.1022045697339475e+00  7.1033674860236520e+00  7.1044914699599930e+00  7.1055776274571434e+00  7.1066270297572212e+00  7.1076407147690510e+00  7.1086196883870620e+00  7.1095649257897584e+00  7.1104773727165638e+00  7.1113579467211618e+00  7.1122075383990078e+00  7.1130270125859516e+00  7.1138172095246466e+00  7.1145789459948166e+00  7.1153130164033689e+00  7.1160201938299679e+00  7.1167012310238018e+00  7.1173568613472664e+00  7.1179877996625338e+00  7.1185947431573506e+00  7.1191783721068624e+00  7.1197393505688815e+00  7.1202783270106407e+00  7.1207959348659768e+00  7.1212927930225103e+00  7.1217695062394233e+00  7.1222266654971671e+00  7.1226648482813024e+00  7.1230846188034320e+00  7.1234865281629629e+00  7.1238711144539275e+00  7.1242389028217952e+00  7.1245904054753888e+00  7.1249261216595325e+00  7.1252465375940321e+00  7.1255521263847150e+00  7.1258433479121299e+00  7.1261206487033402e+00  7.1263844617919361e+00  7.1266352065709979e+00  7.1268732886433268e+00  7.1270990996727415e+00  7.1273130172397501e+00  7.1275154047042895e+00  7.1277066110778176e+00  7.1278869709063111e+00  7.1280568041654515e+00  7.1282164161686010e+00  7.1283660974879233e+00  7.1285061238884984e+00  7.1286367562750472e+00  7.1287582406505470e+00  7.1288708080859120e+00  7.1289746746995739e+00  7.1290700416459121e+00  7.1291570951112213e+00  7.1292360063159714e+00  7.1293069315221329e+00  7.1293700120443013e+00  7.1294253742634988e+00  7.1294731296425313e+00  7.1295133747419595e+00  7.1295461912357343e+00  7.1295716459257772e+00  7.1295897907547969e+00  7.1296006628168458e+00  7.1296042843651302e+00  7.1296006628168458e+00  7.1295897907547978e+00  7.1295716459257772e+00  7.1295461912357361e+00  7.1295133747419603e+00  7.1294731296425349e+00  7.1294253742634996e+00  7.1293700120443031e+00  7.1293069315221365e+00  7.1292360063159741e+00  7.1291570951112222e+00  7.1290700416459147e+00  7.1289746746995739e+00  7.1288708080859111e+00  7.1287582406505461e+00  7.1286367562750472e+00  7.1285061238884984e+00  7.1283660974879250e+00  7.1282164161686028e+00  7.1280568041654524e+00  7.1278869709063128e+00  7.1277066110778184e+00  7.1275154047042895e+00  7.1273130172397501e+00  7.1270990996727424e+00  7.1268732886433268e+00  7.1266352065709970e+00  7.1263844617919334e+00  7.1261206487033402e+00  7.1258433479121308e+00  7.1255521263847168e+00  7.1252465375940357e+00  7.1249261216595352e+00  7.1245904054753906e+00  7.1242389028217978e+00  7.1238711144539284e+00  7.1234865281629602e+00  7.1230846188034320e+00  7.1226648482813033e+00  7.1222266654971689e+00  7.1217695062394242e+00  7.1212927930225103e+00  7.1207959348659760e+00  7.1202783270106389e+00  7.1197393505688780e+00  7.1191783721068598e+00  7.1185947431573471e+00  7.1179877996625329e+00  7.1173568613472664e+00  7.1167012310238036e+00  7.1160201938299696e+00  7.1153130164033733e+00  7.1145789459948192e+00  7.1138172095246448e+00  7.1130270125859516e+00  7.1122075383990042e+00  7.1113579467211592e+00  7.1104773727165584e+00  7.1095649257897557e+00  7.1086196883870558e+00  7.1076407147690484e+00  7.1066270297572194e+00  7.1055776274571398e+00  7.1044914699599895e+00  7.1033674860236493e+00  7.1022045697339422e+00  7.1010015791460415e+00  7.0997573349053864e+00  7.0984706188470916e+00  7.0971401725721250e+00  7.0957646959983611e+00  7.0943428458840909e+00  7.0928732343213792e+00  7.0913544271964213e+00  7.0897849426139752e+00  7.0881632492827782e+00  7.0864877648588980e+00  7.0847568542439809e+00  7.0829688278353826e+00  7.0811219397253531e+00  7.0792143858464058e+00  7.0772443020603033e+00  7.0752097621880381e+00  7.0731087759785050e+00  7.0709392870134948e+00  7.0686991705468873e+00  7.0663862312759917e+00  7.0639982010430185e+00  7.0615327364647911e+00  7.0589874164888613e+00  7.0563597398742122e+00  7.0536471225948096e+00  7.0508468951642129e+00  7.0479562998795897e+00  7.0449724879834044e+00  7.0418925167410897e+00  7.0387133464330409e+00  7.0354318372592921e+00  7.0320447461552567e+00  7.0285487235169146e+00  7.0249403098339522e+00  7.0212159322293353e+00  7.0173719009039113e+00  7.0134044054847395e+00  7.0093095112758954e+00  7.0050831554106514e+00  7.0007211429040916e+00  6.9962191426053595e+00  6.9915726830489282e+00  6.9867771482044487e+00  6.9818277731251053e+00  6.9767196394944690e+00  6.9714476710723021e+00  6.9660066290400193e+00  6.9603911072468696e+00  6.9545955273583058e+00  6.9486141339084728e+00  6.9424409892591736e+00  6.9360699684682361e+00  6.9294947540707792e+00  6.9227088307774611e+00  6.9157054800945339e+00  6.9084777748712698e+00  6.9010185737810570e+00  6.8933205157434818e+00  6.8853760142955718e+00  6.8771772519214620e+00  6.8687161743508787e+00  6.8599844848380673e+00  6.8509736384341009e+00  6.8416748362670203e+00  6.8320790198456685e+00  6.8221768654049804e+00  6.8119587783120945e+00  6.8014148875548095e+00  6.7905350403358469e+00  6.7793087967988361e+00  6.7677254249142704e+00  6.7557738955564091e+00  6.7434428778048980e+00  6.7307207345079547e+00  6.7175955181472462e+00  6.7040549670481475e+00  6.6900865019827505e+00  6.6756772232171180e+00  6.6608139080585866e+00  6.6454830089635069e+00  6.6296706522707769e+00  6.6133626376318011e+00  6.5965444382130833e+00  6.5792012017536630e+00  6.5613177525659694e+00  6.5428785945753427e+00  6.5238679155007215e+00  6.5042695922864731e+00  6.4840671979033973e+00  6.4632440096453019e+00  6.4417830190565324e+00  6.4196669436350486e+00  6.3968782404654370e+00  6.3733991219465160e+00  6.3492115737887014e+00  6.3242973754673955e+00  6.2986381233300177e+00  6.2722152565659925e+00  6.2450100862610158e+00  6.2170038277690454e+00  6.1881776366477634e+00  6.1585126484155044e+00  6.1279900223997688e+00  6.0965909899592337e+00  6.0642969073724586e+00  6.0310893136970458e+00  5.9969499939124784e+00  5.9618610476680907e+00  5.9258049639638353e+00  5.8887647020958864e+00  5.8507237792003970e+00  5.8116663647268734e+00  5.7715773821666447e+00  5.7304426183510886e+00  5.6882488406177005e+00  5.6449839221187110e+00  5.6006369755156671e+00  5.5551984952628013e+00  5.5086605086308520e+00  5.4610167355594781e+00  5.4122627573490094e+00  5.3623961941089844e+00  5.3114168907700092e+00  5.2593271113343629e+00  5.2061317408880425e+00  5.1518384947198719e+00  5.0964581336899784e+00  5.0400046847585971e+00  4.9824956653249686e+00  4.9239523097338314e+00  4.8643997959831626e+00  4.8038674703114612e+00  4.7423890669573598e+00  4.6800029199715043e+00  4.6167521635245699e+00  4.5526849167030505e+00  4.4878544483245397e+00  4.4223193168493404e+00  4.3561434800298926e+00  4.2893963685433665e+00  4.2221529175178967e+00  4.1544935496163919e+00  4.0865041032134339e+00  4.0182756992240742e+00  3.9499045403534851e+00  3.8814916369698955e+00  3.8131424544947996e+00  3.7449664781853462e+00  3.6770766924785776e+00  3.6095889736895499e+00  3.5426213968054627e+00  3.4762934593770085e+00  3.4107252280367257e+00  3.3460364159076628e+00  3.2823454020147498e+00  3.2197682066609250e+00  3.1584174394440230e+00  3.0984012390155362e+00  3.0398222256584315e+00  2.9827764891307278e+00  2.9273526348438095e+00  2.8736309112078566e+00  2.8216824398130727e+00  2.7715685680092359e+00  2.7233403604427755e+00  2.6770382423174426e+00  2.6326918027269919e+00  2.5903197615795945e+00  2.5499300986401296e+00  2.5115203383181370e+00  2.4750779792791802e+00  2.4405810539821200e+00  2.4079988000265984e+00  2.3772924228595871e+00  2.3484159280002102e+00  2.3213170004972374e+00  2.2959379097753021e+00  2.2722164192473415e+00  2.2500866819307190e+00  2.2294801056414628e+00  2.2103261739871871e+00  2.1925532121734190e+00  2.1760890894352314e+00  2.1608618525844641e+00  2.1468002876277401e+00  2.1338344085950047e+00  2.1218958745822478e+00  2.1109183375387790e+00  2.1008377245218899e+00  2.0915924590181723e+00  2.0831236265200150e+00  2.0753750898835635e+00  2.0682935601194892e+00  2.0618286282195366e+00  2.0559327634376183e+00  2.0505612831586748e+00  2.0456722991320677e+00  2.0412266444449956e+00  2.0371877851869544e+00  2.0335217203258229e+00  2.0301968728931667e+00  2.0271839751707721e+00  2.0244559501891422e+00  2.0219877914962212e+00  2.0197564428335033e+00  2.0177406790678312e+00  2.0159209894703731e+00  2.0142794642083826e+00  2.0127996847186731e+00  2.0114666184622685e+00  2.0102665184149195e+00  2.0091868275260070e+00  2.0082160882760878e+00  2.0073438573789182e+00  2.0065606256048585e+00  2.0058577426472186e+00  2.0052273469093933e+00  2.0046623000569062e+00  2.0041561261532808e+00  2.0037029551805614e+00  2.0032974707331688e+00  2.0029348616666383e+00  2.0026107774796302e+00  2.0023212872077658e+00  2.0020628416106341e+00  2.0018322384381220e+00  2.0016265905686814e+00  2.0014432968197275e+00  2.0012800152388577e+00  2.0011346386936153e+00  2.0010052725869234e+00  2.0008902145348877e+00  2.0007879358532428e+00  2.0006970647082092e+00  2.0006163707967928e+00  2.0005447514306200e+00  2.0004812189060290e+00  2.0004248890515646e+00  2.0003749708518774e+00  2.0003307570546576e+00  2.0002916156742980e+00  2.0002569823127558e+00  2.0002263532243507e+00  2.0001992790571710e+00  2.0001753592092673e+00  2.0001542367429339e+00  2.0001355938052026e+00  2.0001191475070441e+00  2.0001046462179217e+00  2.0000918662361102e+00  2.0000806087987018e+00  2.0000706973984261e+00  2.0000619753774105e+00  2.0000543037706828e+00  2.0000475593747620e+00  2.0000416330189354e+00  2.0000364280189471e+00  2.0000318587946997e+00  2.0000278496353596e+00  2.0000243335968211e+00  2.0000212515179410e+00  2.0000185511432