<?xml version="1.0"?>
<VTKFile type="UnstructuredGrid"  version="0.1"  >
<UnstructuredGrid>
<Piece  NumberOfPoints="1001" NumberOfCells="1000">
<Points>
<DataArray  type="Float64"  NumberOfComponents="3"  format="ascii">0 0 0  0.001 0 0  0.002 0 0  0.003 0 0  0.004 0 0  0.005 0 0  0.006 0 0  0.007 0 0  0.008 0 0  0.008999999999999999 0 0  0.01 0 0  0.011 0 0  0.012 0 0  0.013 0 0  0.014 0 0  0.015 0 0  0.016 0 0  0.017 0 0  0.018 0 0  0.019 0 0  0.02 0 0  0.021 0 0  0.022 0 0  0.023 0 0  0.024 0 0  0.025 0 0  0.026 0 0  0.027 0 0  0.028 0 0  0.029 0 0  0.03 0 0  0.031 0 0  0.032 0 0  0.033 0 0  0.034 0 0  0.035 0 0  0.036 0 0  0.037 0 0  0.038 0 0  0.039 0 0  0.04 0 0  0.041 0 0  0.042 0 0  0.043 0 0  0.044 0 0  0.045 0 0  0.046 0 0  0.047 0 0  0.048 0 0  0.049 0 0  0.05 0 0  0.051 0 0  0.052 0 0  0.053 0 0  0.054 0 0  0.055 0 0  0.056 0 0  0.057 0 0  0.058 0 0  0.059 0 0  0.06 0 0  0.061 0 0  0.062 0 0  0.063 0 0  0.064 0 0  0.065 0 0  0.066 0 0  0.067 0 0  0.068 0 0  0.06900000000000001 0 0  0.07000000000000001 0 0  0.07099999999999999 0 0  0.07199999999999999 0 0  0.073 0 0  0.074 0 0  0.075 0 0  0.076 0 0  0.077 0 0  0.078 0 0  0.079 0 0  0.08 0 0  0.081 0 0  0.082 0 0  0.083 0 0  0.08400000000000001 0 0  0.08500000000000001 0 0  0.08599999999999999 0 0  0.08699999999999999 0 0  0.08799999999999999 0 0  0.089 0 0  0.09 0 0  0.091 0 0  0.092 0 0  0.093 0 0  0.094 0 0  0.095 0 0  0.096 0 0  0.097 0 0  0.098 0 0  0.099 0 0  0.1 0 0  0.101 0 0  0.102 0 0  0.103 0 0  0.104 0 0  0.105 0 0  0.106 0 0  0.107 0 0  0.108 0 0  0.109 0 0  0.11 0 0  0.111 0 0  0.112 0 0  0.113 0 0  0.114 0 0  0.115 0 0  0.116 0 0  0.117 0 0  0.118 0 0  0.119 0 0  0.12 0 0  0.121 0 0  0.122 0 0  0.123 0 0  0.124 0 0  0.125 0 0  0.126 0 0  0.127 0 0  0.128 0 0  0.129 0 0  0.13 0 0  0.131 0 0  0.132 0 0  0.133 0 0  0.134 0 0  0.135 0 0  0.136 0 0  0.137 0 0  0.138 0 0  0.139 0 0  0.14 0 0  0.141 0 0  0.142 0 0  0.143 0 0  0.144 0 0  0.145 0 0  0.146 0 0  0.147 0 0  0.148 0 0  0.149 0 0  0.15 0 0  0.151 0 0  0.152 0 0  0.153 0 0  0.154 0 0  0.155 0 0  0.156 0 0  0.157 0 0  0.158 0 0  0.159 0 0  0.16 0 0  0.161 0 0  0.162 0 0  0.163 0 0  0.164 0 0  0.165 0 0  0.166 0 0  0.167 0 0  0.168 0 0  0.169 0 0  0.17 0 0  0.171 0 0  0.172 0 0  0.173 0 0  0.174 0 0  0.175 0 0  0.176 0 0  0.177 0 0  0.178 0 0  0.179 0 0  0.18 0 0  0.181 0 0  0.182 0 0  0.183 0 0  0.184 0 0  0.185 0 0  0.186 0 0  0.187 0 0  0.188 0 0  0.189 0 0  0.19 0 0  0.191 0 0  0.192 0 0  0.193 0 0  0.194 0 0  0.195 0 0  0.196 0 0  0.197 0 0  0.198 0 0  0.199 0 0  0.2 0 0  0.201 0 0  0.202 0 0  0.203 0 0  0.204 0 0  0.205 0 0  0.206 0 0  0.207 0 0  0.208 0 0  0.209 0 0  0.21 0 0  0.211 0 0  0.212 0 0  0.213 0 0  0.214 0 0  0.215 0 0  0.216 0 0  0.217 0 0  0.218 0 0  0.219 0 0  0.22 0 0  0.221 0 0  0.222 0 0  0.223 0 0  0.224 0 0  0.225 0 0  0.226 0 0  0.227 0 0  0.228 0 0  0.229 0 0  0.23 0 0  0.231 0 0  0.232 0 0  0.233 0 0  0.234 0 0  0.235 0 0  0.236 0 0  0.237 0 0  0.238 0 0  0.239 0 0  0.24 0 0  0.241 0 0  0.242 0 0  0.243 0 0  0.244 0 0  0.245 0 0  0.246 0 0  0.247 0 0  0.248 0 0  0.249 0 0  0.25 0 0  0.251 0 0  0.252 0 0  0.253 0 0  0.254 0 0  0.255 0 0  0.256 0 0  0.257 0 0  0.258 0 0  0.259 0 0  0.26 0 0  0.261 0 0  0.262 0 0  0.263 0 0  0.264 0 0  0.265 0 0  0.266 0 0  0.267 0 0  0.268 0 0  0.269 0 0  0.27 0 0  0.271 0 0  0.272 0 0  0.273 0 0  0.274 0 0  0.275 0 0  0.276 0 0  0.277 0 0  0.278 0 0  0.279 0 0  0.28 0 0  0.281 0 0  0.282 0 0  0.283 0 0  0.284 0 0  0.285 0 0  0.286 0 0  0.287 0 0  0.288 0 0  0.289 0 0  0.29 0 0  0.291 0 0  0.292 0 0  0.293 0 0  0.294 0 0  0.295 0 0  0.296 0 0  0.297 0 0  0.298 0 0  0.299 0 0  0.3 0 0  0.301 0 0  0.302 0 0  0.303 0 0  0.304 0 0  0.305 0 0  0.306 0 0  0.307 0 0  0.308 0 0  0.309 0 0  0.31 0 0  0.311 0 0  0.312 0 0  0.313 0 0  0.314 0 0  0.315 0 0  0.316 0 0  0.317 0 0  0.318 0 0  0.319 0 0  0.32 0 0  0.321 0 0  0.322 0 0  0.323 0 0  0.324 0 0  0.325 0 0  0.326 0 0  0.327 0 0  0.328 0 0  0.329 0 0  0.33 0 0  0.331 0 0  0.332 0 0  0.333 0 0  0.334 0 0  0.335 0 0  0.336 0 0  0.337 0 0  0.338 0 0  0.339 0 0  0.34 0 0  0.341 0 0  0.342 0 0  0.343 0 0  0.344 0 0  0.345 0 0  0.346 0 0  0.347 0 0  0.348 0 0  0.349 0 0  0.35 0 0  0.351 0 0  0.352 0 0  0.353 0 0  0.354 0 0  0.355 0 0  0.356 0 0  0.357 0 0  0.358 0 0  0.359 0 0  0.36 0 0  0.361 0 0  0.362 0 0  0.363 0 0  0.364 0 0  0.365 0 0  0.366 0 0  0.367 0 0  0.368 0 0  0.369 0 0  0.37 0 0  0.371 0 0  0.372 0 0  0.373 0 0  0.374 0 0  0.375 0 0  0.376 0 0  0.377 0 0  0.378 0 0  0.379 0 0  0.38 0 0  0.381 0 0  0.382 0 0  0.383 0 0  0.384 0 0  0.385 0 0  0.386 0 0  0.387 0 0  0.388 0 0  0.389 0 0  0.39 0 0  0.391 0 0  0.392 0 0  0.393 0 0  0.394 0 0  0.395 0 0  0.396 0 0  0.397 0 0  0.398 0 0  0.399 0 0  0.4 0 0  0.401 0 0  0.402 0 0  0.403 0 0  0.404 0 0  0.405 0 0  0.406 0 0  0.407 0 0  0.408 0 0  0.409 0 0  0.41 0 0  0.411 0 0  0.412 0 0  0.413 0 0  0.414 0 0  0.415 0 0  0.416 0 0  0.417 0 0  0.418 0 0  0.419 0 0  0.42 0 0  0.421 0 0  0.422 0 0  0.423 0 0  0.424 0 0  0.425 0 0  0.426 0 0  0.427 0 0  0.428 0 0  0.429 0 0  0.43 0 0  0.431 0 0  0.432 0 0  0.433 0 0  0.434 0 0  0.435 0 0  0.436 0 0  0.437 0 0  0.438 0 0  0.439 0 0  0.44 0 0  0.441 0 0  0.442 0 0  0.443 0 0  0.444 0 0  0.445 0 0  0.446 0 0  0.447 0 0  0.448 0 0  0.449 0 0  0.45 0 0  0.451 0 0  0.452 0 0  0.453 0 0  0.454 0 0  0.455 0 0  0.456 0 0  0.457 0 0  0.458 0 0  0.459 0 0  0.46 0 0  0.461 0 0  0.462 0 0  0.463 0 0  0.464 0 0  0.465 0 0  0.466 0 0  0.467 0 0  0.468 0 0  0.469 0 0  0.47 0 0  0.471 0 0  0.472 0 0  0.473 0 0  0.474 0 0  0.475 0 0  0.476 0 0  0.477 0 0  0.478 0 0  0.479 0 0  0.48 0 0  0.481 0 0  0.482 0 0  0.483 0 0  0.484 0 0  0.485 0 0  0.486 0 0  0.487 0 0  0.488 0 0  0.489 0 0  0.49 0 0  0.491 0 0  0.492 0 0  0.493 0 0  0.494 0 0  0.495 0 0  0.496 0 0  0.497 0 0  0.498 0 0  0.499 0 0  0.5 0 0  0.501 0 0  0.502 0 0  0.503 0 0  0.504 0 0  0.505 0 0  0.506 0 0  0.507 0 0  0.508 0 0  0.509 0 0  0.51 0 0  0.511 0 0  0.512 0 0  0.513 0 0  0.514 0 0  0.515 0 0  0.516 0 0  0.517 0 0  0.518 0 0  0.519 0 0  0.52 0 0  0.521 0 0  0.522 0 0  0.523 0 0  0.524 0 0  0.525 0 0  0.526 0 0  0.527 0 0  0.528 0 0  0.529 0 0  0.53 0 0  0.531 0 0  0.532 0 0  0.533 0 0  0.534 0 0  0.535 0 0  0.536 0 0  0.537 0 0  0.538 0 0  0.539 0 0  0.54 0 0  0.541 0 0  0.542 0 0  0.543 0 0  0.544 0 0  0.545 0 0  0.546 0 0  0.547 0 0  0.548 0 0  0.549 0 0  0.55 0 0  0.551 0 0  0.552 0 0  0.553 0 0  0.554 0 0  0.555 0 0  0.556 0 0  0.5570000000000001 0 0  0.5580000000000001 0 0  0.5590000000000001 0 0  0.5600000000000001 0 0  0.5610000000000001 0 0  0.5620000000000001 0 0  0.5629999999999999 0 0  0.5639999999999999 0 0  0.5649999999999999 0 0  0.5659999999999999 0 0  0.5669999999999999 0 0  0.5679999999999999 0 0  0.569 0 0  0.57 0 0  0.571 0 0  0.572 0 0  0.573 0 0  0.574 0 0  0.575 0 0  0.576 0 0  0.577 0 0  0.578 0 0  0.579 0 0  0.58 0 0  0.581 0 0  0.582 0 0  0.583 0 0  0.584 0 0  0.585 0 0  0.586 0 0  0.587 0 0  0.588 0 0  0.589 0 0  0.59 0 0  0.591 0 0  0.592 0 0  0.593 0 0  0.594 0 0  0.595 0 0  0.596 0 0  0.597 0 0  0.598 0 0  0.599 0 0  0.6 0 0  0.601 0 0  0.602 0 0  0.603 0 0  0.604 0 0  0.605 0 0  0.606 0 0  0.607 0 0  0.608 0 0  0.609 0 0  0.61 0 0  0.611 0 0  0.612 0 0  0.613 0 0  0.614 0 0  0.615 0 0  0.616 0 0  0.617 0 0  0.618 0 0  0.619 0 0  0.62 0 0  0.621 0 0  0.622 0 0  0.623 0 0  0.624 0 0  0.625 0 0  0.626 0 0  0.627 0 0  0.628 0 0  0.629 0 0  0.63 0 0  0.631 0 0  0.632 0 0  0.633 0 0  0.634 0 0  0.635 0 0  0.636 0 0  0.637 0 0  0.638 0 0  0.639 0 0  0.64 0 0  0.641 0 0  0.642 0 0  0.643 0 0  0.644 0 0  0.645 0 0  0.646 0 0  0.647 0 0  0.648 0 0  0.649 0 0  0.65 0 0  0.651 0 0  0.652 0 0  0.653 0 0  0.654 0 0  0.655 0 0  0.656 0 0  0.657 0 0  0.658 0 0  0.659 0 0  0.66 0 0  0.661 0 0  0.662 0 0  0.663 0 0  0.664 0 0  0.665 0 0  0.666 0 0  0.667 0 0  0.668 0 0  0.669 0 0  0.67 0 0  0.671 0 0  0.672 0 0  0.673 0 0  0.674 0 0  0.675 0 0  0.676 0 0  0.677 0 0  0.678 0 0  0.679 0 0  0.68 0 0  0.681 0 0  0.6820000000000001 0 0  0.6830000000000001 0 0  0.6840000000000001 0 0  0.6850000000000001 0 0  0.6860000000000001 0 0  0.6870000000000001 0 0  0.6879999999999999 0 0  0.6889999999999999 0 0  0.6899999999999999 0 0  0.6909999999999999 0 0  0.6919999999999999 0 0  0.6929999999999999 0 0  0.694 0 0  0.695 0 0  0.696 0 0  0.697 0 0  0.698 0 0  0.699 0 0  0.7 0 0  0.701 0 0  0.702 0 0  0.703 0 0  0.704 0 0  0.705 0 0  0.706 0 0  0.707 0 0  0.708 0 0  0.709 0 0  0.71 0 0  0.711 0 0  0.712 0 0  0.713 0 0  0.714 0 0  0.715 0 0  0.716 0 0  0.717 0 0  0.718 0 0  0.719 0 0  0.72 0 0  0.721 0 0  0.722 0 0  0.723 0 0  0.724 0 0  0.725 0 0  0.726 0 0  0.727 0 0  0.728 0 0  0.729 0 0  0.73 0 0  0.731 0 0  0.732 0 0  0.733 0 0  0.734 0 0  0.735 0 0  0.736 0 0  0.737 0 0  0.738 0 0  0.739 0 0  0.74 0 0  0.741 0 0  0.742 0 0  0.743 0 0  0.744 0 0  0.745 0 0  0.746 0 0  0.747 0 0  0.748 0 0  0.749 0 0  0.75 0 0  0.751 0 0  0.752 0 0  0.753 0 0  0.754 0 0  0.755 0 0  0.756 0 0  0.757 0 0  0.758 0 0  0.759 0 0  0.76 0 0  0.761 0 0  0.762 0 0  0.763 0 0  0.764 0 0  0.765 0 0  0.766 0 0  0.767 0 0  0.768 0 0  0.769 0 0  0.77 0 0  0.771 0 0  0.772 0 0  0.773 0 0  0.774 0 0  0.775 0 0  0.776 0 0  0.777 0 0  0.778 0 0  0.779 0 0  0.78 0 0  0.781 0 0  0.782 0 0  0.783 0 0  0.784 0 0  0.785 0 0  0.786 0 0  0.787 0 0  0.788 0 0  0.789 0 0  0.79 0 0  0.791 0 0  0.792 0 0  0.793 0 0  0.794 0 0  0.795 0 0  0.796 0 0  0.797 0 0  0.798 0 0  0.799 0 0  0.8 0 0  0.801 0 0  0.802 0 0  0.803 0 0  0.804 0 0  0.805 0 0  0.806 0 0  0.8070000000000001 0 0  0.8080000000000001 0 0  0.8090000000000001 0 0  0.8100000000000001 0 0  0.8110000000000001 0 0  0.8120000000000001 0 0  0.8129999999999999 0 0  0.8139999999999999 0 0  0.8149999999999999 0 0  0.8159999999999999 0 0  0.8169999999999999 0 0  0.8179999999999999 0 0  0.819 0 0  0.82 0 0  0.821 0 0  0.822 0 0  0.823 0 0  0.824 0 0  0.825 0 0  0.826 0 0  0.827 0 0  0.828 0 0  0.829 0 0  0.83 0 0  0.831 0 0  0.832 0 0  0.833 0 0  0.834 0 0  0.835 0 0  0.836 0 0  0.837 0 0  0.838 0 0  0.839 0 0  0.84 0 0  0.841 0 0  0
[...]
<PointData  Scalars="f_20-0"> 
<DataArray  type="Float64"  Name="f_20-0"  format="ascii">6.4296242938146637e+00  6.4300687497707179e+00  6.4313990573822997e+00  6.4336060873737200e+00  6.4366747943843841e+00  6.4405844667703294e+00  6.4453090658830785e+00  6.4508176449506740e+00  6.4570748356357646e+00  6.4640413888081563e+00  6.4716747550903664e+00  6.4799296903301711e+00  6.4887588713074633e+00  6.4981135076505483e+00  6.5079439370521683e+00  6.5182001923537820e+00  6.5288325308128119e+00  6.5397919177825443e+00  6.5510304590207928e+00  6.5625017778116614e+00  6.5741613349567523e+00  6.5859666914040913e+00  6.5978777147878152e+00  6.6098567324179536e+00  6.6218686342723494e+00  6.6338809303003297e+00  6.6458637668607832e+00  6.6577899074055917e+00  6.6696346826090274e+00  6.6813759150653320e+00  6.6929938234622313e+00  6.7044709108196354e+00  6.7157918409901498e+00  6.7269433071789990e+00  6.7379138957787346e+00  6.7486939483491435e+00  6.7592754241200721e+00  6.7696517649672456e+00  6.7798177644162001e+00  6.7897694418731422e+00  6.7995039229662808e+00  6.8090193266075962e+00  6.8183146591522608e+00  6.8273897158387067e+00  6.8362449895336397e+00  6.8448815866796053e+00  6.8533011502445103e+00  6.8615057893985609e+00  6.8694980155915069e+00  6.8772806846675545e+00  6.8848569446346737e+00  6.8922301886957174e+00  6.8994040131487901e+00  6.9063821797715113e+00  6.9131685823161213e+00  6.9197672167588218e+00  6.9261821549654687e+00  6.9324175214563395e+00  6.9384774729739815e+00  6.9443661805796859e+00  6.9500878140254265e+00  6.9556465281687565e+00  6.9610464512180616e+00  6.9662916746142187e+00  6.9713862443725745e+00  6.9763341537255457e+00  6.9811393369214176e+00  6.9858056640491961e+00  6.9903369367720911e+00  6.9947368848643299e+00  6.9990091634565772e+00  7.0031573509052274e+00  7.0071849472096721e+00  7.0110953729096970e+00  7.0148919684025079e+00  7.0185779936253292e+00  7.0221566280555638e+00  7.0256309709856515e+00  7.0290040420346775e+00  7.0322787818628960e+00  7.0354580530593029e+00  7.0385446411757142e+00  7.0415412558838977e+00  7.0444505322350190e+00  7.0472750320031814e+00  7.0500172450968970e+00  7.0526795910243596e+00  7.0552644204000723e+00  7.0577740164819778e+00  7.0602105967295152e+00  7.0625763143743638e+00  7.0648732599966300e+00  7.0671034631002190e+00  7.0692688936820245e+00  7.0713714637902578e+00  7.0734130290679920e+00  7.0753953902785049e+00  7.0773202948096072e+00  7.0791894381545308e+00  7.0810044653674575e+00  7.0827669724920117e+00  7.0844785079614612e+00  7.0861405739695718e+00  7.0877546278114076e+00  7.0893220831933963e+00  7.0908443115124289e+00  7.0923226431036470e+00  7.0937583684569274e+00  7.0951527394021063e+00  7.0965069702630377e+00  7.0978222389808030e+00  7.0990996882063602e+00  7.1003404263630063e+00  7.1015455286791047e+00  7.1027160381915788e+00  7.1038529667206598e+00  7.1049572958164848e+00  7.1060299776780962e+00  7.1070719360454193e+00  7.1080840670649099e+00  7.1090672401293826e+00  7.1100222986927282e+00  7.1109500610601319e+00  7.1118513211544006e+00  7.1127268492590545e+00  7.1135773927388009e+00  7.1144036767379948e+00  7.1152064048577195e+00  7.1159862598120922e+00  7.1167439040643492e+00  7.1174799804433695e+00  7.1181951127411205e+00  7.1188899062916677e+00  7.1195649485322390e+00  7.1202208095469341e+00  7.1208580425935448e+00  7.1214771846140534e+00  7.1220787567292643e+00  7.1226632647180974e+00  7.1232311994819684e+00  7.1237830374947748e+00  7.1243192412388829e+00  7.1248402596275691e+00  7.1253465284143607e+00  7.1258384705896569e+00  7.1263164967650434e+00  7.1267810055456895e+00  7.1272323838911875e+00  7.1276710074652287e+00  7.1280972409744292e+00  7.1285114384966946e+00  7.1289139437994100e+00  7.1293050906477990e+00  7.1296852031037767e+00  7.1300545958155697e+00  7.1304135742984158e+00  7.1307624352066146e+00  7.1311014665972134e+00  7.1314309481855842e+00  7.1317511515931606e+00  7.1320623405875621e+00  7.1323647713153742e+00  7.1326586925278059e+00  7.1329443457994195e+00  7.1332219657402200e+00  7.1334917802012443e+00  7.1337540104738899e+00  7.1340088714831964e+00  7.1342565719752074e+00  7.1344973146986952e+00  7.1347312965813243e+00  7.1349587089005091e+00  7.1351797374490848e+00  7.1353945626959643e+00  7.1356033599419764e+00  7.1358062994709526e+00  7.1360035466963074e+00  7.1361952623031817e+00  7.1363816023863160e+00  7.1365627185838125e+00  7.1367387582068371e+00  7.1369098643654718e+00  7.1370761760908081e+00  7.1372378284533484e+00  7.1373949526779201e+00  7.1375476762551511e+00  7.1376961230495919e+00  7.1378404134046756e+00  7.1379806642445232e+00  7.1381169891727279e+00  7.1382494985682241e+00  7.1383782996783101e+00  7.1385034967089211e+00  7.1386251909122382e+00  7.1387434806716916e+00  7.1388584615844932e+00  7.1389702265416926e+00  7.1390788658059199e+00  7.1391844670868165e+00  7.1392871156142608e+00  7.1393868942094381e+00  7.1394838833538445e+00  7.1395781612562441e+00  7.1396698039176982e+00  7.1397588851946709e+00  7.1398454768603008e+00  7.1399296486638812e+00  7.1400114683886207e+00  7.1400910019077077e+00  7.1401683132387515e+00  7.1402434645966393e+00  7.1403165164448517e+00  7.1403875275453128e+00  7.1404565550067609e+00  7.1405236543317576e+00  7.1405888794622960e+00  7.1406522828241279e+00  7.1407139153697861e+00  7.1407738266203786e+00  7.1408320647061618e+00  7.1408886764059636e+00  7.1409437071854622e+00  7.1409972012343612e+00  7.1410492015024927e+00  7.1410997497349085e+00  7.1411488865059196e+00  7.1411966512522129e+00  7.1412430823049560e+00  7.1412882169210512e+00  7.1413320913134362e+00  7.1413747406805541e+00  7.1414161992349579e+00  7.1414565002311221e+00  7.1414956759924397e+00  7.1415337579374460e+00  7.1415707766053309e+00  7.1416067616806673e+00  7.1416417420174882e+00  7.1416757456626474e+00  7.1417087998785203e+00  7.1417409311650664e+00  7.1417721652812665e+00  7.1418025272659484e+00  7.1418320414579934e+00  7.1418607315160338e+00  7.1418886204375278e+00  7.1419157305773178e+00  7.1419420836656808e+00  7.1419677008258420e+00  7.1419926025909906e+00  7.1420168089208502e+00  7.1420403392177363e+00  7.1420632123421894e+00  7.1420854466281529e+00  7.1421070598977261e+00  7.1421280694755005e+00  7.1421484922024945e+00  7.1421683444496908e+00  7.1421876421311925e+00  7.1422064007170132e+00  7.1422246352455021e+00  7.1422423603354144e+00  7.1422595901976598e+00  7.1422763386466945e+00  7.1422926191116209e+00  7.1423084446469467e+00  7.1423238279430672e+00  7.1423387813364378e+00  7.1423533168194568e+00  7.1423674460500894e+00  7.1423811803612081e+00  7.1423945307696677e+00  7.1424075079851308e+00  7.1424201224186534e+00  7.1424323841910153e+00  7.1424443031408273e+00  7.1424558888324050e+00  7.1424671505634221e+00  7.1424780973723649e+00  7.1424887380457474e+00  7.1424990811251465e+00  7.1425091349140484e+00  7.1425189074844724e+00  7.1425284066834367e+00  7.1425376401392313e+00  7.1425466152675181e+00  7.1425553392772665e+00  7.1425638191765009e+00  7.1425720617779218e+00  7.1425800737043392e+00  7.1425878613939719e+00  7.1425954311055868e+00  7.1426027889235062e+00  7.1426099407624708e+00  7.1426168923723603e+00  7.1426236493427915e+00  7.1426302171075884e+00  7.1426366009491122e+00  7.1426428060024936e+00  7.1426488372597250e+00  7.1426546995736553e+00  7.1426603976618637e+00  7.1426659361104257e+00  7.1426713193775884e+00  7.1426765517973116e+00  7.1426816375827480e+00  7.1426865808295954e+00  7.1426913855193757e+00  7.1426960555226140e+00  7.1427005946019309e+00  7.1427050064150395e+00  7.1427092945176796e+00  7.1427134623664505e+00  7.1427175133215668e+00  7.1427214506495593e+00  7.1427252775258703e+00  7.1427289970373886e+00  7.1427326121849282e+00  7.1427361258856141e+00  7.1427395409752155e+00  7.1427428602104142e+00  7.1427460862710044e+00  7.1427492217620356e+00  7.1427522692158920e+00  7.1427552310943190e+00  7.1427581097903854e+00  7.1427609076304019e+00  7.1427636268757730e+00  7.1427662697248113e+00  7.1427688383144918e+00  7.1427713347221609e+00  7.1427737609671897e+00  7.1427761190126047e+00  7.1427784107666383e+00  7.1427806380842664e+00  7.1427828027686866e+00  7.1427849065727642e+00  7.1427869512004349e+00  7.1427889383080609e+00  7.1427908695057596e+00  7.1427927463586895e+00  7.1427945703883049e+00  7.1427963430735772e+00  7.1427980658521708e+00  7.1427997401215917e+00  7.1428013672403194e+00  7.1428029485288791e+00  7.1428044852709061e+00  7.1428059787141782e+00  7.1428074300716027e+00  7.1428088405221910e+00  7.1428102112120158e+00  7.1428115432551120e+00  7.1428128377343763e+00  7.1428140957024402e+00  7.1428153181824996e+00  7.1428165061691500e+00  7.1428176606291753e+00  7.1428187825023191e+00  7.1428198727020469e+00  7.1428209321162743e+00  7.1428219616080808e+00  7.1428229620163961e+00  7.1428239341566782e+00  7.1428248788215702e+00  7.1428257967815298e+00  7.1428266887854504e+00  7.1428275555612650e+00  7.1428283978165208e+00  7.1428292162389653e+00  7.1428300114970780e+00  7.1428307842406209e+00  7.1428315351011555e+00  7.1428322646925473e+00  7.1428329736114708e+00  7.1428336624378765e+00  7.1428343317354548e+00  7.1428349820521078e+00  7.1428356139203704e+00  7.1428362278578446e+00  7.1428368243676257e+00  7.1428374039386835e+00  7.1428379670462867e+00  7.1428385141523609e+00  7.1428390457058715e+00  7.1428395621431795e+00  7.1428400638883991e+00  7.1428405513537339e+00  7.1428410249398162e+00  7.1428414850360173e+00  7.1428419320207732e+00  7.1428423662618821e+00  7.1428427881168073e+00  7.1428431979329607e+00  7.1428435960479844e+00  7.1428439827900183e+00  7.1428443584779799e+00  7.1428447234218027e+00  7.1428450779226944e+00  7.1428454222733855e+00  7.1428457567583497e+00  7.1428460816540609e+00  7.1428463972291887e+00  7.1428467037448282e+00  7.1428470014547099e+00  7.1428472906054035e+00  7.1428475714365200e+00  7.1428478441808991e+00  7.1428481090648059e+00  7.1428483663081064e+00  7.1428486161244447e+00  7.1428488587214281e+00  7.1428490943007805e+00  7.1428493230585079e+00  7.1428495451850660e+00  7.1428497608655031e+00  7.1428499702796184e+00  7.1428501736021017e+00  7.1428503710026785e+00  7.1428505626462417e+00  7.1428507486929966e+00  7.1428509292985733e+00  7.1428511046141701e+00  7.1428512747866630e+00  7.1428514399587293e+00  7.1428516002689637e+00  7.1428517558519866e+00  7.1428519068385583e+00  7.1428520533556830e+00  7.1428521955267072e+00  7.1428523334714251e+00  7.1428524673061702e+00  7.1428525971439099e+00  7.1428527230943448e+00  7.1428528452639828e+00  7.1428529637562406e+00  7.1428530786715134e+00  7.1428531901072612e+00  7.1428532981580899e+00  7.1428534029158266e+00  7.1428535044695884e+00  7.1428536029058574e+00  7.1428536983085520e+00  7.1428537907590908e+00  7.1428538803364656e+00  7.1428539671172864e+00  7.1428540511758660e+00  7.1428541325842607e+00  7.1428542114123390e+00  7.1428542877278334e+00  7.1428543615963882e+00  7.1428544330816290e+00  7.1428545022451972e+00  7.1428545691468033e+00  7.1428546338442773e+00  7.1428546963936084e+00  7.1428547568489975e+00  7.1428548152628926e+00  7.1428548716860343e+00  7.1428549261674954e+00  7.1428549787547198e+00  7.1428550294935587e+00  7.1428550784283047e+00  7.1428551256017299e+00  7.1428551710551167e+00  7.1428552148282956e+00  7.1428552569596677e+00  7.1428552974862392e+00  7.1428553364436507e+00  7.1428553738662020e+00  7.1428554097868862e+00  7.1428554442373997e+00  7.1428554772481876e+00  7.1428555088484531e+00  7.1428555390661748e+00  7.1428555679281471e+00  7.1428555954599835e+00  7.1428556216861434e+00  7.1428556466299540e+00  7.1428556703136206e+00  7.1428556927582472e+00  7.1428557139838516e+00  7.1428557340093848e+00  7.1428557528527410e+00  7.1428557705307689e+00  7.1428557870592915e+00  7.1428558024531128e+00  7.1428558167260299e+00  7.1428558298908396e+00  7.1428558419593653e+00  7.1428558529424384e+00  7.1428558628499337e+00  7.1428558716907498e+00  7.1428558794728430e+00  7.1428558862032112e+00  7.1428558918879146e+00  7.1428558965320690e+00  7.1428559001398586e+00  7.1428559027145333e+00  7.1428559042584086e+00  7.1428559047728815e+00  7.1428559042584103e+00  7.1428559027145342e+00  7.1428559001398604e+00  7.1428558965320716e+00  7.1428558918879164e+00  7.1428558862032121e+00  7.1428558794728438e+00  7.1428558716907524e+00  7.1428558628499381e+00  7.1428558529424446e+00  7.1428558419593671e+00  7.1428558298908431e+00  7.1428558167260308e+00  7.1428558024531155e+00  7.1428557870592924e+00  7.1428557705307707e+00  7.1428557528527428e+00  7.1428557340093874e+00  7.1428557139838533e+00  7.1428556927582472e+00  7.1428556703136206e+00  7.1428556466299549e+00  7.1428556216861443e+00  7.1428555954599853e+00  7.1428555679281489e+00  7.1428555390661774e+00  7.1428555088484549e+00  7.1428554772481929e+00  7.1428554442374033e+00  7.1428554097868870e+00  7.1428553738662046e+00  7.1428553364436524e+00  7.1428552974862427e+00  7.1428552569596722e+00  7.1428552148283009e+00  7.1428551710551202e+00  7.1428551256017325e+00  7.1428550784283065e+00  7.1428550294935604e+00  7.1428549787547198e+00  7.1428549261674954e+00  7.1428548716860343e+00  7.1428548152628917e+00  7.1428547568489984e+00  7.1428546963936101e+00  7.1428546338442791e+00  7.1428545691468077e+00  7.1428545022451990e+00  7.1428544330816308e+00  7.1428543615963900e+00  7.1428542877278325e+00  7.1428542114123408e+00  7.1428541325842607e+00  7.1428540511758660e+00  7.1428539671172881e+00  7.1428538803364656e+00  7.1428537907590917e+00  7.1428536983085520e+00  7.1428536029058600e+00  7.1428535044695884e+00  7.1428534029158293e+00  7.1428532981580908e+00  7.1428531901072621e+00  7.1428530786715134e+00  7.1428529637562406e+00  7.1428528452639828e+00  7.1428527230943430e+00  7.1428525971439090e+00  7.1428524673061649e+00  7.1428523334714216e+00  7.1428521955267037e+00  7.1428520533556821e+00  7.1428519068385565e+00  7.1428517558519831e+00  7.1428516002689593e+00  7.1428514399587257e+00  7.1428512747866604e+00  7.1428511046141683e+00  7.1428509292985725e+00  7.1428507486929940e+00  7.1428505626462417e+00  7.1428503710026758e+00  7.1428501736020991e+00  7.1428499702796158e+00  7.1428497608655004e+00  7.1428495451850642e+00  7.1428493230585079e+00  7.1428490943007796e+00  7.1428488587214298e+00  7.1428486161244455e+00  7.1428483663081055e+00  7.1428481090648051e+00  7.1428478441808974e+00  7.1428475714365165e+00  7.1428472906054017e+00  7.1428470014547081e+00  7.1428467037448256e+00  7.1428463972291860e+00  7.1428460816540582e+00  7.1428457567583479e+00  7.1428454222733784e+00  7.1428450779226909e+00  7.1428447234218009e+00  7.1428443584779799e+00  7.1428439827900192e+00  7.1428435960479844e+00  7.1428431979329607e+00  7.1428427881168091e+00  7.1428423662618821e+00  7.1428419320207741e+00  7.1428414850360182e+00  7.1428410249398171e+00  7.1428405513537339e+00  7.1428400638883982e+00  7.1428395621431795e+00  7.1428390457058715e+00  7.1428385141523627e+00  7.1428379670462894e+00  7.1428374039386862e+00  7.1428368243676257e+00  7.1428362278578454e+00  7.1428356139203704e+00  7.1428349820521078e+00  7.1428343317354548e+00  7.1428336624378739e+00  7.1428329736114717e+00  7.1428322646925473e+00  7.1428315351011511e+00  7.1428307842406182e+00  7.1428300114970762e+00  7.1428292162389626e+00  7.1428283978165181e+00  7.1428275555612597e+00  7.1428266887854459e+00  7.1428257967815236e+00  7.1428248788215667e+00  7.1428239341566728e+00  7.1428229620163917e+00  7.1428219616080781e+00  7.1428209321162734e+00  7.1428198727020442e+00  7.1428187825023155e+00  7.1428176606291727e+00  7.1428165061691491e+00  7.1428153181824978e+00  7.1428140957024375e+00  7.1428128377343745e+00  7.1428115432551094e+00  7.1428102112120149e+00  7.1428088405221919e+00  7.1428074300716027e+00  7.1428059787141800e+00  7.1428044852709087e+00  7.1428029485288800e+00  7.1428013672403203e+00  7.1427997401215917e+00  7.1427980658521717e+00  7.1427963430735781e+00  7.1427945703883058e+00  7.1427927463586887e+00  7.1427908695057596e+00  7.1427889383080627e+00  7.1427869512004349e+00  7.1427849065727615e+00  7.1427828027686813e+00  7.1427806380842629e+00  7.1427784107666374e+00  7.1427761190126056e+00  7.1427737609671924e+00  7.1427713347221609e+00  7.1427688383144936e+00  7.1427662697248122e+00  7.1427636268757739e+00  7.1427609076304028e+00  7.1427581097903872e+00  7.1427552310943172e+00  7.1427522692158893e+00  7.1427492217620330e+00  7.1427460862710026e+00  7.1427428602104142e+00  7.1427395409752164e+00  7.1427361258856159e+00  7.1427326121849299e+00  7.1427289970373922e+00  7.1427252775258729e+00  7.1427214506495638e+00  7.1427175133215695e+00  7.1427134623664497e+00  7.1427092945176831e+00  7.1427050064150439e+00  7.1427005946019362e+00  7.1426960555226184e+00  7.1426913855193783e+00  7.1426865808295963e+00  7.1426816375827498e+00  7.1426765517973143e+00  7.1426713193775910e+00  7.1426659361104274e+00  7.1426603976618601e+00  7.1426546995736517e+00  7.1426488372597232e+00  7.1426428060024918e+00  7.1426366009491122e+00  7.1426302171075866e+00  7.1426236493427906e+00  7.1426168923723585e+00  7.1426099407624708e+00  7.1426027889235071e+00  7.1425954311055895e+00  7.1425878613939746e+00  7.1425800737043419e+00  7.1425720617779236e+00  7.1425638191765026e+00  7.1425553392772665e+00  7.1425466152675199e+00  7.1425376401392340e+00  7.1425284066834367e+00  7.1425189074844724e+00  7.1425091349140475e+00  7.1424990811251474e+00  7.1424887380457474e+00  7.1424780973723658e+00  7.1424671505634221e+00  7.1424558888324032e+00  7.1424443031408265e+00  7.1424323841910153e+00  7.1424201224186517e+00  7.1424075079851299e+00  7.1423945307696686e+00  7.1423811803612098e+00  7.1423674460500886e+00  7.1423533168194560e+00  7.1423387813364378e+00  7.1423238279430699e+00  7.1423084446469502e+00  7.1422926191116236e+00  7.1422763386466990e+00  7.1422595901976642e+00  7.1422423603354197e+00  7.1422246352455083e+00  7.1422064007170167e+00  7.1421876421311961e+00  7.1421683444496944e+00  7.1421484922024971e+00  7.1421280694755005e+00  7.1421070598977261e+00  7.1420854466281529e+00  7.1420632123421903e+00  7.1420403392177354e+00  7.1420168089208476e+00  7.1419926025909888e+00  7.1419677008258420e+00  7.1419420836656826e+00  7.1419157305773204e+00  7.1418886204375305e+00  7.1418607315160383e+00  7.1418320414579961e+00  7.1418025272659476e+00  7.1417721652812673e+00  7.1417409311650664e+00  7.1417087998785167e+00  7.1416757456626465e+00  7.1416417420174882e+00  7.1416067616806700e+00  7.1415707766053309e+00  7.1415337579374469e+00  7.1414956759924397e+00  7.1414565002311248e+00  7.1414161992349596e+00  7.1413747406805559e+00  7.1413320913134406e+00  7.1412882169210539e+00  7.1412430823049569e+00  7.1411966512522138e+00  7.1411488865059196e+00  7.1410997497349076e+00  7.1410492015024927e+00  7.1409972012343594e+00  7.1409437071854649e+00  7.1408886764059663e+00  7.1408320647061627e+00  7.1407738266203804e+00  7.1407139153697887e+00  7.1406522828241252e+00  7.1405888794622951e+00  7.1405236543317576e+00  7.1404565550067636e+00  7.1403875275453128e+00  7.1403165164448508e+00  7.1402434645966348e+00  7.1401683132387488e+00  7.1400910019077033e+00  7.1400114683886153e+00  7.1399296486638733e+00  7.1398454768602946e+00  7.1397588851946665e+00  7.1396698039176929e+00  7.1395781612562397e+00  7.1394838833538383e+00  7.1393868942094336e+00  7.1392871156142590e+00  7.1391844670868174e+00  7.1390788658059208e+00  7.1389702265416917e+00  7.1388584615844923e+00  7.1387434806716916e+00  7.1386251909122347e+00  7.1385034967089211e+00  7.1383782996783101e+00  7.1382494985682259e+00  7.1381169891727305e+00  7.1379806642445276e+00  7.1378404134046809e+00  7.1376961230495937e+00  7.1375476762551520e+00  7.1373949526779219e+00  7.1372378284533458e+00  7.1370761760908090e+00  7.1369098643654745e+00  7.1367387582068371e+00  7.1365627185838134e+00  7.1363816023863169e+00  7.1361952623031772e+00  7.1360035466963021e+00  7.1358062994709481e+00  7.1356033599419755e+00  7.1353945626959643e+00  7.1351797374490813e+00  7.1349587089005