<?xml version="1.0"?>
<VTKFile type="UnstructuredGrid"  version="0.1"  >
<UnstructuredGrid>
<Piece  NumberOfPoints="1001" NumberOfCells="1000">
<Points>
<DataArray  type="Float64"  NumberOfComponents="3"  format="ascii">0 0 0  0.001 0 0  0.002 0 0  0.003 0 0  0.004 0 0  0.005 0 0  0.006 0 0  0.007 0 0  0.008 0 0  0.008999999999999999 0 0  0.01 0 0  0.011 0 0  0.012 0 0  0.013 0 0  0.014 0 0  0.015 0 0  0.016 0 0  0.017 0 0  0.018 0 0  0.019 0 0  0.02 0 0  0.021 0 0  0.022 0 0  0.023 0 0  0.024 0 0  0.025 0 0  0.026 0 0  0.027 0 0  0.028 0 0  0.029 0 0  0.03 0 0  0.031 0 0  0.032 0 0  0.033 0 0  0.034 0 0  0.035 0 0  0.036 0 0  0.037 0 0  0.038 0 0  0.039 0 0  0.04 0 0  0.041 0 0  0.042 0 0  0.043 0 0  0.044 0 0  0.045 0 0  0.046 0 0  0.047 0 0  0.048 0 0  0.049 0 0  0.05 0 0  0.051 0 0  0.052 0 0  0.053 0 0  0.054 0 0  0.055 0 0  0.056 0 0  0.057 0 0  0.058 0 0  0.059 0 0  0.06 0 0  0.061 0 0  0.062 0 0  0.063 0 0  0.064 0 0  0.065 0 0  0.066 0 0  0.067 0 0  0.068 0 0  0.06900000000000001 0 0  0.07000000000000001 0 0  0.07099999999999999 0 0  0.07199999999999999 0 0  0.073 0 0  0.074 0 0  0.075 0 0  0.076 0 0  0.077 0 0  0.078 0 0  0.079 0 0  0.08 0 0  0.081 0 0  0.082 0 0  0.083 0 0  0.08400000000000001 0 0  0.08500000000000001 0 0  0.08599999999999999 0 0  0.08699999999999999 0 0  0.08799999999999999 0 0  0.089 0 0  0.09 0 0  0.091 0 0  0.092 0 0  0.093 0 0  0.094 0 0  0.095 0 0  0.096 0 0  0.097 0 0  0.098 0 0  0.099 0 0  0.1 0 0  0.101 0 0  0.102 0 0  0.103 0 0  0.104 0 0  0.105 0 0  0.106 0 0  0.107 0 0  0.108 0 0  0.109 0 0  0.11 0 0  0.111 0 0  0.112 0 0  0.113 0 0  0.114 0 0  0.115 0 0  0.116 0 0  0.117 0 0  0.118 0 0  0.119 0 0  0.12 0 0  0.121 0 0  0.122 0 0  0.123 0 0  0.124 0 0  0.125 0 0  0.126 0 0  0.127 0 0  0.128 0 0  0.129 0 0  0.13 0 0  0.131 0 0  0.132 0 0  0.133 0 0  0.134 0 0  0.135 0 0  0.136 0 0  0.137 0 0  0.138 0 0  0.139 0 0  0.14 0 0  0.141 0 0  0.142 0 0  0.143 0 0  0.144 0 0  0.145 0 0  0.146 0 0  0.147 0 0  0.148 0 0  0.149 0 0  0.15 0 0  0.151 0 0  0.152 0 0  0.153 0 0  0.154 0 0  0.155 0 0  0.156 0 0  0.157 0 0  0.158 0 0  0.159 0 0  0.16 0 0  0.161 0 0  0.162 0 0  0.163 0 0  0.164 0 0  0.165 0 0  0.166 0 0  0.167 0 0  0.168 0 0  0.169 0 0  0.17 0 0  0.171 0 0  0.172 0 0  0.173 0 0  0.174 0 0  0.175 0 0  0.176 0 0  0.177 0 0  0.178 0 0  0.179 0 0  0.18 0 0  0.181 0 0  0.182 0 0  0.183 0 0  0.184 0 0  0.185 0 0  0.186 0 0  0.187 0 0  0.188 0 0  0.189 0 0  0.19 0 0  0.191 0 0  0.192 0 0  0.193 0 0  0.194 0 0  0.195 0 0  0.196 0 0  0.197 0 0  0.198 0 0  0.199 0 0  0.2 0 0  0.201 0 0  0.202 0 0  0.203 0 0  0.204 0 0  0.205 0 0  0.206 0 0  0.207 0 0  0.208 0 0  0.209 0 0  0.21 0 0  0.211 0 0  0.212 0 0  0.213 0 0  0.214 0 0  0.215 0 0  0.216 0 0  0.217 0 0  0.218 0 0  0.219 0 0  0.22 0 0  0.221 0 0  0.222 0 0  0.223 0 0  0.224 0 0  0.225 0 0  0.226 0 0  0.227 0 0  0.228 0 0  0.229 0 0  0.23 0 0  0.231 0 0  0.232 0 0  0.233 0 0  0.234 0 0  0.235 0 0  0.236 0 0  0.237 0 0  0.238 0 0  0.239 0 0  0.24 0 0  0.241 0 0  0.242 0 0  0.243 0 0  0.244 0 0  0.245 0 0  0.246 0 0  0.247 0 0  0.248 0 0  0.249 0 0  0.25 0 0  0.251 0 0  0.252 0 0  0.253 0 0  0.254 0 0  0.255 0 0  0.256 0 0  0.257 0 0  0.258 0 0  0.259 0 0  0.26 0 0  0.261 0 0  0.262 0 0  0.263 0 0  0.264 0 0  0.265 0 0  0.266 0 0  0.267 0 0  0.268 0 0  0.269 0 0  0.27 0 0  0.271 0 0  0.272 0 0  0.273 0 0  0.274 0 0  0.275 0 0  0.276 0 0  0.277 0 0  0.278 0 0  0.279 0 0  0.28 0 0  0.281 0 0  0.282 0 0  0.283 0 0  0.284 0 0  0.285 0 0  0.286 0 0  0.287 0 0  0.288 0 0  0.289 0 0  0.29 0 0  0.291 0 0  0.292 0 0  0.293 0 0  0.294 0 0  0.295 0 0  0.296 0 0  0.297 0 0  0.298 0 0  0.299 0 0  0.3 0 0  0.301 0 0  0.302 0 0  0.303 0 0  0.304 0 0  0.305 0 0  0.306 0 0  0.307 0 0  0.308 0 0  0.309 0 0  0.31 0 0  0.311 0 0  0.312 0 0  0.313 0 0  0.314 0 0  0.315 0 0  0.316 0 0  0.317 0 0  0.318 0 0  0.319 0 0  0.32 0 0  0.321 0 0  0.322 0 0  0.323 0 0  0.324 0 0  0.325 0 0  0.326 0 0  0.327 0 0  0.328 0 0  0.329 0 0  0.33 0 0  0.331 0 0  0.332 0 0  0.333 0 0  0.334 0 0  0.335 0 0  0.336 0 0  0.337 0 0  0.338 0 0  0.339 0 0  0.34 0 0  0.341 0 0  0.342 0 0  0.343 0 0  0.344 0 0  0.345 0 0  0.346 0 0  0.347 0 0  0.348 0 0  0.349 0 0  0.35 0 0  0.351 0 0  0.352 0 0  0.353 0 0  0.354 0 0  0.355 0 0  0.356 0 0  0.357 0 0  0.358 0 0  0.359 0 0  0.36 0 0  0.361 0 0  0.362 0 0  0.363 0 0  0.364 0 0  0.365 0 0  0.366 0 0  0.367 0 0  0.368 0 0  0.369 0 0  0.37 0 0  0.371 0 0  0.372 0 0  0.373 0 0  0.374 0 0  0.375 0 0  0.376 0 0  0.377 0 0  0.378 0 0  0.379 0 0  0.38 0 0  0.381 0 0  0.382 0 0  0.383 0 0  0.384 0 0  0.385 0 0  0.386 0 0  0.387 0 0  0.388 0 0  0.389 0 0  0.39 0 0  0.391 0 0  0.392 0 0  0.393 0 0  0.394 0 0  0.395 0 0  0.396 0 0  0.397 0 0  0.398 0 0  0.399 0 0  0.4 0 0  0.401 0 0  0.402 0 0  0.403 0 0  0.404 0 0  0.405 0 0  0.406 0 0  0.407 0 0  0.408 0 0  0.409 0 0  0.41 0 0  0.411 0 0  0.412 0 0  0.413 0 0  0.414 0 0  0.415 0 0  0.416 0 0  0.417 0 0  0.418 0 0  0.419 0 0  0.42 0 0  0.421 0 0  0.422 0 0  0.423 0 0  0.424 0 0  0.425 0 0  0.426 0 0  0.427 0 0  0.428 0 0  0.429 0 0  0.43 0 0  0.431 0 0  0.432 0 0  0.433 0 0  0.434 0 0  0.435 0 0  0.436 0 0  0.437 0 0  0.438 0 0  0.439 0 0  0.44 0 0  0.441 0 0  0.442 0 0  0.443 0 0  0.444 0 0  0.445 0 0  0.446 0 0  0.447 0 0  0.448 0 0  0.449 0 0  0.45 0 0  0.451 0 0  0.452 0 0  0.453 0 0  0.454 0 0  0.455 0 0  0.456 0 0  0.457 0 0  0.458 0 0  0.459 0 0  0.46 0 0  0.461 0 0  0.462 0 0  0.463 0 0  0.464 0 0  0.465 0 0  0.466 0 0  0.467 0 0  0.468 0 0  0.469 0 0  0.47 0 0  0.471 0 0  0.472 0 0  0.473 0 0  0.474 0 0  0.475 0 0  0.476 0 0  0.477 0 0  0.478 0 0  0.479 0 0  0.48 0 0  0.481 0 0  0.482 0 0  0.483 0 0  0.484 0 0  0.485 0 0  0.486 0 0  0.487 0 0  0.488 0 0  0.489 0 0  0.49 0 0  0.491 0 0  0.492 0 0  0.493 0 0  0.494 0 0  0.495 0 0  0.496 0 0  0.497 0 0  0.498 0 0  0.499 0 0  0.5 0 0  0.501 0 0  0.502 0 0  0.503 0 0  0.504 0 0  0.505 0 0  0.506 0 0  0.507 0 0  0.508 0 0  0.509 0 0  0.51 0 0  0.511 0 0  0.512 0 0  0.513 0 0  0.514 0 0  0.515 0 0  0.516 0 0  0.517 0 0  0.518 0 0  0.519 0 0  0.52 0 0  0.521 0 0  0.522 0 0  0.523 0 0  0.524 0 0  0.525 0 0  0.526 0 0  0.527 0 0  0.528 0 0  0.529 0 0  0.53 0 0  0.531 0 0  0.532 0 0  0.533 0 0  0.534 0 0  0.535 0 0  0.536 0 0  0.537 0 0  0.538 0 0  0.539 0 0  0.54 0 0  0.541 0 0  0.542 0 0  0.543 0 0  0.544 0 0  0.545 0 0  0.546 0 0  0.547 0 0  0.548 0 0  0.549 0 0  0.55 0 0  0.551 0 0  0.552 0 0  0.553 0 0  0.554 0 0  0.555 0 0  0.556 0 0  0.5570000000000001 0 0  0.5580000000000001 0 0  0.5590000000000001 0 0  0.5600000000000001 0 0  0.5610000000000001 0 0  0.5620000000000001 0 0  0.5629999999999999 0 0  0.5639999999999999 0 0  0.5649999999999999 0 0  0.5659999999999999 0 0  0.5669999999999999 0 0  0.5679999999999999 0 0  0.569 0 0  0.57 0 0  0.571 0 0  0.572 0 0  0.573 0 0  0.574 0 0  0.575 0 0  0.576 0 0  0.577 0 0  0.578 0 0  0.579 0 0  0.58 0 0  0.581 0 0  0.582 0 0  0.583 0 0  0.584 0 0  0.585 0 0  0.586 0 0  0.587 0 0  0.588 0 0  0.589 0 0  0.59 0 0  0.591 0 0  0.592 0 0  0.593 0 0  0.594 0 0  0.595 0 0  0.596 0 0  0.597 0 0  0.598 0 0  0.599 0 0  0.6 0 0  0.601 0 0  0.602 0 0  0.603 0 0  0.604 0 0  0.605 0 0  0.606 0 0  0.607 0 0  0.608 0 0  0.609 0 0  0.61 0 0  0.611 0 0  0.612 0 0  0.613 0 0  0.614 0 0  0.615 0 0  0.616 0 0  0.617 0 0  0.618 0 0  0.619 0 0  0.62 0 0  0.621 0 0  0.622 0 0  0.623 0 0  0.624 0 0  0.625 0 0  0.626 0 0  0.627 0 0  0.628 0 0  0.629 0 0  0.63 0 0  0.631 0 0  0.632 0 0  0.633 0 0  0.634 0 0  0.635 0 0  0.636 0 0  0.637 0 0  0.638 0 0  0.639 0 0  0.64 0 0  0.641 0 0  0.642 0 0  0.643 0 0  0.644 0 0  0.645 0 0  0.646 0 0  0.647 0 0  0.648 0 0  0.649 0 0  0.65 0 0  0.651 0 0  0.652 0 0  0.653 0 0  0.654 0 0  0.655 0 0  0.656 0 0  0.657 0 0  0.658 0 0  0.659 0 0  0.66 0 0  0.661 0 0  0.662 0 0  0.663 0 0  0.664 0 0  0.665 0 0  0.666 0 0  0.667 0 0  0.668 0 0  0.669 0 0  0.67 0 0  0.671 0 0  0.672 0 0  0.673 0 0  0.674 0 0  0.675 0 0  0.676 0 0  0.677 0 0  0.678 0 0  0.679 0 0  0.68 0 0  0.681 0 0  0.6820000000000001 0 0  0.6830000000000001 0 0  0.6840000000000001 0 0  0.6850000000000001 0 0  0.6860000000000001 0 0  0.6870000000000001 0 0  0.6879999999999999 0 0  0.6889999999999999 0 0  0.6899999999999999 0 0  0.6909999999999999 0 0  0.6919999999999999 0 0  0.6929999999999999 0 0  0.694 0 0  0.695 0 0  0.696 0 0  0.697 0 0  0.698 0 0  0.699 0 0  0.7 0 0  0.701 0 0  0.702 0 0  0.703 0 0  0.704 0 0  0.705 0 0  0.706 0 0  0.707 0 0  0.708 0 0  0.709 0 0  0.71 0 0  0.711 0 0  0.712 0 0  0.713 0 0  0.714 0 0  0.715 0 0  0.716 0 0  0.717 0 0  0.718 0 0  0.719 0 0  0.72 0 0  0.721 0 0  0.722 0 0  0.723 0 0  0.724 0 0  0.725 0 0  0.726 0 0  0.727 0 0  0.728 0 0  0.729 0 0  0.73 0 0  0.731 0 0  0.732 0 0  0.733 0 0  0.734 0 0  0.735 0 0  0.736 0 0  0.737 0 0  0.738 0 0  0.739 0 0  0.74 0 0  0.741 0 0  0.742 0 0  0.743 0 0  0.744 0 0  0.745 0 0  0.746 0 0  0.747 0 0  0.748 0 0  0.749 0 0  0.75 0 0  0.751 0 0  0.752 0 0  0.753 0 0  0.754 0 0  0.755 0 0  0.756 0 0  0.757 0 0  0.758 0 0  0.759 0 0  0.76 0 0  0.761 0 0  0.762 0 0  0.763 0 0  0.764 0 0  0.765 0 0  0.766 0 0  0.767 0 0  0.768 0 0  0.769 0 0  0.77 0 0  0.771 0 0  0.772 0 0  0.773 0 0  0.774 0 0  0.775 0 0  0.776 0 0  0.777 0 0  0.778 0 0  0.779 0 0  0.78 0 0  0.781 0 0  0.782 0 0  0.783 0 0  0.784 0 0  0.785 0 0  0.786 0 0  0.787 0 0  0.788 0 0  0.789 0 0  0.79 0 0  0.791 0 0  0.792 0 0  0.793 0 0  0.794 0 0  0.795 0 0  0.796 0 0  0.797 0 0  0.798 0 0  0.799 0 0  0.8 0 0  0.801 0 0  0.802 0 0  0.803 0 0  0.804 0 0  0.805 0 0  0.806 0 0  0.8070000000000001 0 0  0.8080000000000001 0 0  0.8090000000000001 0 0  0.8100000000000001 0 0  0.8110000000000001 0 0  0.8120000000000001 0 0  0.8129999999999999 0 0  0.8139999999999999 0 0  0.8149999999999999 0 0  0.8159999999999999 0 0  0.8169999999999999 0 0  0.8179999999999999 0 0  0.819 0 0  0.82 0 0  0.821 0 0  0.822 0 0  0.823 0 0  0.824 0 0  0.825 0 0  0.826 0 0  0.827 0 0  0.828 0 0  0.829 0 0  0.83 0 0  0.831 0 0  0.832 0 0  0.833 0 0  0.834 0 0  0.835 0 0  0.836 0 0  0.837 0 0  0.838 0 0  0.839 0 0  0.84 0 0  0.841 0 0  0
[...]
<PointData  Scalars="f_20-0"> 
<DataArray  type="Float64"  Name="f_20-0"  format="ascii">2.0000000000608305e+00  2.0000000000615894e+00  2.0000000000638836e+00  2.0000000000677667e+00  2.0000000000733311e+00  2.0000000000807070e+00  2.0000000000900666e+00  2.0000000001016307e+00  2.0000000001156693e+00  2.0000000001325100e+00  2.0000000001525429e+00  2.0000000001762315e+00  2.0000000002041225e+00  2.0000000002368554e+00  2.0000000002751803e+00  2.0000000003199698e+00  2.0000000003722413e+00  2.0000000004331757e+00  2.0000000005041438e+00  2.0000000005867333e+00  2.0000000006827867e+00  2.0000000007944374e+00  2.0000000009241510e+00  2.0000000010747807e+00  2.0000000012496240e+00  2.0000000014524897e+00  2.0000000016877779e+00  2.0000000019605668e+00  2.0000000022767148e+00  2.0000000026429827e+00  2.0000000030671634e+00  2.0000000035582390e+00  2.0000000041265595e+00  2.0000000047840456e+00  2.0000000055444183e+00  2.0000000064234729e+00  2.0000000074393771e+00  2.0000000086130294e+00  2.0000000099684518e+00  2.0000000115332517e+00  2.0000000133391458e+00  2.0000000154225548e+00  2.0000000178252888e+00  2.0000000205953263e+00  2.0000000237877060e+00  2.0000000274655405e+00  2.0000000317011750e+00  2.0000000365775059e+00  2.0000000421894928e+00  2.0000000486458620e+00  2.0000000560710669e+00  2.0000000646075033e+00  2.0000000744180433e+00  2.0000000856889057e+00  2.0000000986329320e+00  2.0000001134932930e+00  2.0000001305477126e+00  2.0000001501132636e+00  2.0000001725518053e+00  2.0000001982761582e+00  2.0000002277571092e+00  2.0000002615313432e+00  2.0000003002104525e+00  2.0000003444911223e+00  2.0000003951666807e+00  2.0000004531401614e+00  2.0000005194390980e+00  2.0000005952322479e+00  2.0000006818485017e+00  2.0000007807982549e+00  2.0000008937975613e+00  2.0000010227953924e+00  2.0000011700044196e+00  2.0000013379357440e+00  2.0000015294380629e+00  2.0000017477418339e+00  2.0000019965090443e+00  2.0000022798892685e+00  2.0000026025827973e+00  2.0000029699116895e+00  2.0000033878997057e+00  2.0000038633622106e+00  2.0000044040072296e+00  2.0000050185489977e+00  2.0000057168355010e+00  2.0000065099916595e+00  2.0000074105800132e+00  2.0000084327809611e+00  2.0000095925948580e+00  2.0000109080685133e+00  2.0000123995489241e+00  2.0000140899674008e+00  2.0000160051575788e+00  2.0000181742111995e+00  2.0000206298759715e+00  2.0000234090002920e+00  2.0000265530301045e+00  2.0000301085637817e+00  2.0000341279714942e+00  2.0000386700862616e+00  2.0000438009746149e+00  2.0000495947956347e+00  2.0000561347580561e+00  2.0000635141861212e+00  2.0000718377059554e+00  2.0000812225654729e+00  2.0000918001021089e+00  2.0001037173741163e+00  2.0001171389727688e+00  2.0001322490344964e+00  2.0001492534738685e+00  2.0001683824603820e+00  2.0001898931642272e+00  2.0002140727986193e+00  2.0002412419889066e+00  2.0002717585014986e+00  2.0003060213687429e+00  2.0003444754492068e+00  2.0003876164664054e+00  2.0004359965728766e+00  2.0004902304907080e+00  2.0005510022840447e+00  2.0006190728239366e+00  2.0006952880110043e+00  2.0007805878268545e+00  2.0008760162910257e+00  2.0009827324063858e+00  2.0011020221824389e+00  2.0012353118328781e+00  2.0013841822509071e+00  2.0015503848733731e+00  2.0017358590525416e+00  2.0019427510623853e+00  2.0021734348744551e+00  2.0024305348466984e+00  2.0027169504769295e+00  2.0030358833808193e+00  2.0033908666621980e+00  2.0037857968509369e+00  2.0042249685904050e+00  2.0047131122623627e+00  2.0052554347416143e+00  2.0058576634755800e+00  2.0065260940846623e+00  2.0072676416771693e+00  2.0080898960672924e+00  2.0090011810750976e+00  2.0100106180731538e+00  2.0111281939240735e+00  2.0123648334258699e+00  2.0137324763463829e+00  2.0152441590825396e+00  2.0169141009235569e+00  2.0187577948273390e+00  2.0207921025347044e+00  2.0230353537444508e+00  2.0255074489516707e+00  2.0282299654101124e+00  2.0312262655144342e+00  2.0345216067082608e+00  2.0381432518070661e+00  2.0421205783800223e+00  2.0464851855612927e+00  2.0512709963592064e+00  2.0565143532026933e+00  2.0622541041113300e+00  2.0685316765032589e+00  2.0753911352713970e+00  2.0828792213727696e+00  2.0910453668018496e+00  2.0999416814731426e+00  2.1096229072418300e+00  2.1201463340684379e+00  2.1315716732127172e+00  2.1439608823546834e+00  2.1573779377209412e+00  2.1718885486767143e+00  2.1875598108618144e+00  2.2044597948318891e+00  2.2226570683372300e+00  2.2422201518422775e+00  2.2632169086572516e+00  2.2857138730983442e+00  2.3097755223725240e+00  2.3354635003313478e+00  2.3628358037650754e+00  2.3919459444011042e+00  2.4228421020970168e+00  2.4555662867346335e+00  2.4901535278796105e+00  2.5266311122322693e+00  2.5650178891401834e+00  2.6053236638855339e+00  2.6475486970573963e+00  2.6916833260800352e+00  2.7377077219572481e+00  2.7855917906285041e+00  2.8352952241818068e+00  2.8867677027338039e+00  2.9399492432944161e+00  2.9947706876093814e+00  3.0511543170346114e+00  3.1090145791257395e+00  3.1682589079672199e+00  3.2287886184090726e+00  3.2904998533630931e+00  3.3532845631190540e+00  3.4170314962137778e+00  3.4816271826234169e+00  3.5469568918278740e+00  3.6129055504773842e+00  3.6793586068336936e+00  3.7462028317267229e+00  3.8133270483412089e+00  3.8806227856240980e+00  3.9479848524019663e+00  4.0153118313599654e+00  4.0825064938228124e+00  4.1494761377759684e+00  4.2161328527697570e+00  4.2823937162715042e+00  4.3481809266912439e+00  4.4134218787322768e+00  4.4780491869387937e+00  4.5420006633613452e+00  4.6052192551681843e+00  4.6676529478265492e+00  4.7292546391898638e+00  4.7899819894787896e+00  4.8497972517570220e+00  4.9086670870939715e+00  4.9665623681904583e+00  5.0234579748315218e+00  5.0793325841311647e+00  5.1341684581535798e+00  5.1879512311387730e+00  5.2406696982302510e+00  5.2923156072998951e+00  5.3428834551913127e+00  5.3923702894566858e+00  5.4407755164434795e+00  5.4881007163940581e+00  5.5343494660523138e+00  5.5795271691247903e+00  5.6236408948175267e+00  5.6666992245622332e+00  5.7087121069544322e+00  5.7496907208502179e+00  5.7896473465054230e+00  5.8285952445898994e+00  5.8665485428685562e+00  5.9035221303087519e+00  5.9395315583492145e+00  5.9745929490477421e+00  6.0087229098126906e+00  6.0419384544158410e+00  6.0742569299805451e+00  6.1056959496390739e+00  6.1362733305554515e+00  6.1660070370149844e+00  6.1949151282882173e+00  6.2230157109850781e+00  6.2503268956239886e+00  6.2768667571507812e+00  6.3026532991526016e+00  6.3277044215229372e+00  6.3520378913450282e+00  6.3756713167719790e+00  6.3986221236931939e+00  6.4209075349876699e+00  6.4425445521754998e+00  6.4635499392895719e+00  6.4839402087996394e+00  6.5037316094308935e+00  6.5229401157286784e+00  6.5415814192301767e+00  6.5596709211127004e+00  6.5772237261965021e+00  6.5942546381880858e+00  6.6107781560575143e+00  6.6268084714503894e+00  6.6423594670419899e+00  6.6574447157474888e+00  6.6720774807081762e+00  6.6862707159793571e+00  6.7000370678509782e+00  6.7133888767370360e+00  6.7263381795745767e+00  6.7388967126775574e+00  6.7510759149949759e+00  6.7628869317265767e+00  6.7743406182530839e+00  6.7854475443413138e+00  6.7962179985876752e+00  6.8066619930665748e+00  6.8167892681529558e+00  6.8266092974907817e+00  6.8361312930816895e+00  6.8453642104702341e+00  6.8543167540042313e+00  6.8629973821506116e+00  6.8714143128489837e+00  6.8795755288867655e+00  6.8874887832812393e+00  6.8951616046553763e+00  6.9026013025954409e+00  6.9098149729798051e+00  6.9168095032693042e+00  6.9235915777506607e+00  6.9301676827253686e+00  6.9365441116373239e+00  6.9427269701333030e+00  6.9487221810511448e+00  6.9545354893311249e+00  6.9601724668466955e+00  6.9656385171512909e+00  6.9709388801384380e+00  6.9760786366128960e+00  6.9810627127710045e+00  6.9858958845887447e+00  6.9905827821164666e+00  6.9951278936795482e+00  6.9995355699844479e+00  7.0038100281300943e+00  7.0079553555245440e+00  7.0119755137072683e+00  7.0158743420775140e+00  7.0196555615293885e+00  7.0233227779944727e+00  7.0268794858929562e+00  7.0303290714942843e+00  7.0336748161885714e+00  7.0369198996700160e+00  7.0400674030336710e+00  7.0431203117870567e+00  7.0460815187780037e+00  7.0489538270403580e+00  7.0517399525590720e+00  7.0544425269563424e+00  7.0570641001003835e+00  7.0596071426385549e+00  7.0620740484564610e+00  7.0644671370647592e+00  7.0667886559153414e+00  7.0690407826485711e+00  7.0712256272732583e+00  7.0733452342810761e+00  7.0754015846970253e+00  7.0773965980676614e+00  7.0793321343886708e+00  7.0812099959734027e+00  7.0830319292639716e+00  7.0847996265865190e+00  7.0865147278520890e+00  7.0881788222047453e+00  7.0897934496183428e+00  7.0913601024434429e+00  7.0928802269058178e+00  7.0943552245579182e+00  7.0957864536847177e+00  7.0971752306652327e+00  7.0985228312911017e+00  7.0998304920434094e+00  7.1010994113291224e+00  7.1023307506782727e+00  7.1035256359031287e+00  7.1046851582205086e+00  7.1058103753383381e+00  7.1069023125076338e+00  7.1079619635408937e+00  7.1089902917980092e+00  7.1099882311406830e+00  7.1109566868563698e+00  7.1118965365526465e+00  7.1128086310230190e+00  7.1136937950850303e+00  7.1145528283915498e+00  7.1153865062161179e+00  7.1161955802131658e+00  7.1169807791539181e+00  7.1177428096387683e+00  7.1184823567868731e+00  7.1192000849037251e+00  7.1198966381273623e+00  7.1205726410539958e+00  7.1212286993436429e+00  7.1218654003064437e+00  7.1224833134703243e+00  7.1230829911305440e+00  7.1236649688818154e+00  7.1242297661334479e+00  7.1247778866082037e+00  7.1253098188252695e+00  7.1258260365679762e+00  7.1263269993366860e+00  7.1268131527873919e+00  7.1272849291564517e+00  7.1277427476719550e+00  7.1281870149521227e+00  7.1286181253912133e+00  7.1290364615332820e+00  7.1294423944342631e+00  7.1298362840127103e+00  7.1302184793895780e+00  7.1305893192174201e+00  7.1309491319993423e+00  7.1312982363980302e+00  7.1316369415352199e+00  7.1319655472818768e+00  7.1322843445394204e+00  7.1325936155122820e+00  7.1328936339720785e+00  7.1331846655136601e+00  7.1334669678033551e+00  7.1337407908195942e+00  7.1340063770862301e+00  7.1342639618987622e+00  7.1345137735436923e+00  7.1347560335112936e+00  7.1349909567019374e+00  7.1352187516262591e+00  7.1354396205993300e+00  7.1356537599290490e+00  7.1358613600989615e+00  7.1360626059456553e+00  7.1362576768309571e+00  7.1364467468090789e+00  7.1366299847888710e+00  7.1368075546913738e+00  7.1369796156027823e+00  7.1371463219229847e+00  7.1373078235098077e+00  7.1374642658190872e+00  7.1376157900406909e+00  7.1377625332305854e+00  7.1379046284390686e+00  7.1380422048352097e+00  7.1381753878276468e+00  7.1383042991817272e+00  7.1384290571331226e+00  7.1385497764979258e+00  7.1386665687792883e+00  7.1387795422706199e+00  7.1388888021553853e+00  7.1389944506035405e+00  7.1390965868645555e+00  7.1391953073571282e+00  7.1392907057554993e+00  7.1393828730724582e+00  7.1394718977389777e+00  7.1395578656805254e+00  7.1396408603900401e+00  7.1397209629975968e+00  7.1397982523367274e+00  7.1398728050075180e+00  7.1399446954363821e+00  7.1400139959326632e+00  7.1400807767420122e+00  7.1401451060966581e+00  7.1402070502626049e+00  7.1402666735838229e+00  7.1403240385235147e+00  7.1403792057025592e+00  7.1404322339351891e+00  7.1404831802620716e+00  7.1405320999808177e+00  7.1405790466741079e+00  7.1406240722355214e+00  7.1406672268932097e+00  7.1407085592315065e+00  7.1407481162106476e+00  7.1407859431847038e+00  7.1408220839178593e+00  7.1408565805991691e+00  7.1408894738558955e+00  7.1409208027655708e+00  7.1409506048668749e+00  7.1409789161694537e+00  7.1410057711627699e+00  7.1410312028240881e+00  7.1410552426256597e+00  7.1410779205412309e+00  7.1410992650518983e+00  7.1411193031514202e+00  7.1411380603510128e+00  7.1411555606837025e+00  7.1411718267082609e+00  7.1411868795127873e+00  7.1412007387179521e+00  7.1412134224799351e+00  7.1412249474930851e+00  7.1412353289923312e+00  7.1412445807553278e+00  7.1412527151043905e+00  7.1412597429081996e+00  7.1412656735832938e+00  7.1412705150953473e+00  7.1412742739602697e+00  7.1412769552450790e+00  7.1412785625685764e+00  7.1412790981018555e+00  7.1412785625685791e+00  7.1412769552450834e+00  7.1412742739602759e+00  7.1412705150953499e+00  7.1412656735832938e+00  7.1412597429082023e+00  7.1412527151043950e+00  7.1412445807553313e+00  7.1412353289923347e+00  7.1412249474930896e+00  7.1412134224799368e+00  7.1412007387179539e+00  7.1411868795127891e+00  7.1411718267082627e+00  7.1411555606837043e+00  7.1411380603510146e+00  7.1411193031514193e+00  7.1410992650518965e+00  7.1410779205412318e+00  7.1410552426256615e+00  7.1410312028240890e+00  7.1410057711627699e+00  7.1409789161694537e+00  7.1409506048668741e+00  7.1409208027655700e+00  7.1408894738558919e+00  7.1408565805991655e+00  7.1408220839178549e+00  7.1407859431846994e+00  7.1407481162106450e+00  7.1407085592315083e+00  7.1406672268932097e+00  7.1406240722355205e+00  7.1405790466741044e+00  7.1405320999808177e+00  7.1404831802620743e+00  7.1404322339351900e+00  7.1403792057025592e+00  7.1403240385235147e+00  7.1402666735838221e+00  7.1402070502626067e+00  7.1401451060966599e+00  7.1400807767420167e+00  7.1400139959326676e+00  7.1399446954363848e+00  7.1398728050075180e+00  7.1397982523367274e+00  7.1397209629975942e+00  7.1396408603900410e+00  7.1395578656805228e+00  7.1394718977389768e+00  7.1393828730724591e+00  7.1392907057554993e+00  7.1391953073571273e+00  7.1390965868645555e+00  7.1389944506035405e+00  7.1388888021553853e+00  7.1387795422706182e+00  7.1386665687792865e+00  7.1385497764979258e+00  7.1384290571331208e+00  7.1383042991817254e+00  7.1381753878276459e+00  7.1380422048352097e+00  7.1379046284390686e+00  7.1377625332305845e+00  7.1376157900406882e+00  7.1374642658190881e+00  7.1373078235098086e+00  7.1371463219229883e+00  7.1369796156027858e+00  7.1368075546913783e+00  7.1366299847888737e+00  7.1364467468090806e+00  7.1362576768309580e+00  7.1360626059456544e+00  7.1358613600989598e+00  7.1356537599290464e+00  7.1354396205993256e+00  7.1352187516262555e+00  7.1349909567019338e+00  7.1347560335112910e+00  7.1345137735436897e+00  7.1342639618987578e+00  7.1340063770862274e+00  7.1337407908195916e+00  7.1334669678033515e+00  7.1331846655136566e+00  7.1328936339720750e+00  7.1325936155122829e+00  7.1322843445394204e+00  7.1319655472818759e+00  7.1316369415352181e+00  7.1312982363980293e+00  7.1309491319993414e+00  7.1305893192174201e+00  7.1302184793895780e+00  7.1298362840127103e+00  7.1294423944342640e+00  7.1290364615332811e+00  7.1286181253912124e+00  7.1281870149521227e+00  7.1277427476719559e+00  7.1272849291564508e+00  7.1268131527873910e+00  7.1263269993366833e+00  7.1258260365679718e+00  7.1253098188252686e+00  7.1247778866082001e+00  7.1242297661334471e+00  7.1236649688818137e+00  7.1230829911305449e+00  7.1224833134703252e+00  7.1218654003064472e+00  7.1212286993436464e+00  7.1205726410539993e+00  7.1198966381273667e+00  7.1192000849037296e+00  7.1184823567868820e+00  7.1177428096387718e+00  7.1169807791539217e+00  7.1161955802131684e+00  7.1153865062161215e+00  7.1145528283915507e+00  7.1136937950850294e+00  7.1128086310230190e+00  7.1118965365526483e+00  7.1109566868563716e+00  7.1099882311406857e+00  7.1089902917980075e+00  7.1079619635408910e+00  7.1069023125076329e+00  7.1058103753383381e+00  7.1046851582205068e+00  7.1035256359031296e+00  7.1023307506782718e+00  7.1010994113291233e+00  7.0998304920434077e+00  7.0985228312911008e+00  7.0971752306652327e+00  7.0957864536847159e+00  7.0943552245579173e+00  7.0928802269058169e+00  7.0913601024434438e+00  7.0897934496183428e+00  7.0881788222047479e+00  7.0865147278520908e+00  7.0847996265865198e+00  7.0830319292639716e+00  7.0812099959734027e+00  7.0793321343886699e+00  7.0773965980676614e+00  7.0754015846970235e+00  7.0733452342810761e+00  7.0712256272732619e+00  7.0690407826485746e+00  7.0667886559153468e+00  7.0644671370647609e+00  7.0620740484564619e+00  7.0596071426385567e+00  7.0570641001003835e+00  7.0544425269563424e+00  7.0517399525590720e+00  7.0489538270403580e+00  7.0460815187780037e+00  7.0431203117870558e+00  7.0400674030336692e+00  7.0369198996700142e+00  7.0336748161885705e+00  7.0303290714942861e+00  7.0268794858929526e+00  7.0233227779944709e+00  7.0196555615293850e+00  7.0158743420775149e+00  7.0119755137072701e+00  7.0079553555245440e+00  7.0038100281300935e+00  6.9995355699844453e+00  6.9951278936795482e+00  6.9905827821164666e+00  6.9858958845887447e+00  6.9810627127710037e+00  6.9760786366128933e+00  6.9709388801384380e+00  6.9656385171512936e+00  6.9601724668466964e+00  6.9545354893311258e+00  6.9487221810511457e+00  6.9427269701333065e+00  6.9365441116373292e+00  6.9301676827253740e+00  6.9235915777506642e+00  6.9168095032693069e+00  6.9098149729798095e+00  6.9026013025954445e+00  6.8951616046553781e+00  6.8874887832812419e+00  6.8795755288867655e+00  6.8714143128489837e+00  6.8629973821506125e+00  6.8543167540042331e+00  6.8453642104702395e+00  6.8361312930816922e+00  6.8266092974907835e+00  6.8167892681529576e+00  6.8066619930665757e+00  6.7962179985876743e+00  6.7854475443413147e+00  6.7743406182530839e+00  6.7628869317265758e+00  6.7510759149949786e+00  6.7388967126775601e+00  6.7263381795745811e+00  6.7133888767370404e+00  6.7000370678509791e+00  6.6862707159793553e+00  6.6720774807081780e+00  6.6574447157474923e+00  6.6423594670419934e+00  6.6268084714503939e+00  6.6107781560575205e+00  6.5942546381880911e+00  6.5772237261965047e+00  6.5596709211127058e+00  6.5415814192301820e+00  6.5229401157286837e+00  6.5037316094308979e+00  6.4839402087996429e+00  6.4635499392895728e+00  6.4425445521755051e+00  6.4209075349876743e+00  6.3986221236931975e+00  6.3756713167719816e+00  6.3520378913450299e+00  6.3277044215229381e+00  6.3026532991526008e+00  6.2768667571507812e+00  6.2503268956239895e+00  6.2230157109850772e+00  6.1949151282882173e+00  6.1660070370149835e+00  6.1362733305554542e+00  6.1056959496390784e+00  6.0742569299805478e+00  6.0419384544158428e+00  6.0087229098126942e+00  5.9745929490477439e+00  5.9395315583492208e+00  5.9035221303087555e+00  5.8665485428685580e+00  5.8285952445899030e+00  5.7896473465054239e+00  5.7496907208502197e+00  5.7087121069544375e+00  5.6666992245622394e+00  5.6236408948175294e+00  5.5795271691247912e+00  5.5343494660523165e+00  5.4881007163940652e+00  5.4407755164434848e+00  5.3923702894566894e+00  5.3428834551913189e+00  5.2923156072999040e+00  5.2406696982302554e+00  5.1879512311387792e+00  5.1341684581535825e+00  5.0793325841311683e+00  5.0234579748315236e+00  4.9665623681904636e+00  4.9086670870939759e+00  4.8497972517570256e+00  4.7899819894787949e+00  4.7292546391898691e+00  4.6676529478265536e+00  4.6052192551681888e+00  4.5420006633613497e+00  4.4780491869387946e+00  4.4134218787322759e+00  4.3481809266912430e+00  4.2823937162715051e+00  4.2161328527697615e+00  4.1494761377759710e+00  4.0825064938228177e+00  4.0153118313599689e+00  3.9479848524019689e+00  3.8806227856241007e+00  3.8133270483412116e+00  3.7462028317267237e+00  3.6793586068336945e+00  3.6129055504773859e+00  3.5469568918278749e+00  3.4816271826234173e+00  3.4170314962137782e+00  3.3532845631190544e+00  3.2904998533630931e+00  3.2287886184090731e+00  3.1682589079672190e+00  3.1090145791257391e+00  3.0511543170346114e+00  2.9947706876093805e+00  2.9399492432944161e+00  2.8867677027338043e+00  2.8352952241818072e+00  2.7855917906285050e+00  2.7377077219572481e+00  2.6916833260800366e+00  2.6475486970573976e+00  2.6053236638855357e+00  2.5650178891401838e+00  2.5266311122322702e+00  2.4901535278796110e+00  2.4555662867346331e+00  2.4228421020970212e+00  2.3919459444011095e+00  2.3628358037650812e+00  2.3354635003313522e+00  2.3097755223725294e+00  2.2857138730983468e+00  2.2632169086572533e+00  2.2422201518422784e+00  2.2226570683372309e+00  2.2044597948318914e+00  2.1875598108618166e+00  2.1718885486767152e+00  2.1573779377209417e+00  2.1439608823546847e+00  2.1315716732127199e+00  2.1201463340684410e+00  2.1096229072418