<?xml version="1.0"?>
<VTKFile type="UnstructuredGrid"  version="0.1"  >
<UnstructuredGrid>
<Piece  NumberOfPoints="1001" NumberOfCells="1000">
<Points>
<DataArray  type="Float64"  NumberOfComponents="3"  format="ascii">0 0 0  0.001 0 0  0.002 0 0  0.003 0 0  0.004 0 0  0.005 0 0  0.006 0 0  0.007 0 0  0.008 0 0  0.008999999999999999 0 0  0.01 0 0  0.011 0 0  0.012 0 0  0.013 0 0  0.014 0 0  0.015 0 0  0.016 0 0  0.017 0 0  0.018 0 0  0.019 0 0  0.02 0 0  0.021 0 0  0.022 0 0  0.023 0 0  0.024 0 0  0.025 0 0  0.026 0 0  0.027 0 0  0.028 0 0  0.029 0 0  0.03 0 0  0.031 0 0  0.032 0 0  0.033 0 0  0.034 0 0  0.035 0 0  0.036 0 0  0.037 0 0  0.038 0 0  0.039 0 0  0.04 0 0  0.041 0 0  0.042 0 0  0.043 0 0  0.044 0 0  0.045 0 0  0.046 0 0  0.047 0 0  0.048 0 0  0.049 0 0  0.05 0 0  0.051 0 0  0.052 0 0  0.053 0 0  0.054 0 0  0.055 0 0  0.056 0 0  0.057 0 0  0.058 0 0  0.059 0 0  0.06 0 0  0.061 0 0  0.062 0 0  0.063 0 0  0.064 0 0  0.065 0 0  0.066 0 0  0.067 0 0  0.068 0 0  0.06900000000000001 0 0  0.07000000000000001 0 0  0.07099999999999999 0 0  0.07199999999999999 0 0  0.073 0 0  0.074 0 0  0.075 0 0  0.076 0 0  0.077 0 0  0.078 0 0  0.079 0 0  0.08 0 0  0.081 0 0  0.082 0 0  0.083 0 0  0.08400000000000001 0 0  0.08500000000000001 0 0  0.08599999999999999 0 0  0.08699999999999999 0 0  0.08799999999999999 0 0  0.089 0 0  0.09 0 0  0.091 0 0  0.092 0 0  0.093 0 0  0.094 0 0  0.095 0 0  0.096 0 0  0.097 0 0  0.098 0 0  0.099 0 0  0.1 0 0  0.101 0 0  0.102 0 0  0.103 0 0  0.104 0 0  0.105 0 0  0.106 0 0  0.107 0 0  0.108 0 0  0.109 0 0  0.11 0 0  0.111 0 0  0.112 0 0  0.113 0 0  0.114 0 0  0.115 0 0  0.116 0 0  0.117 0 0  0.118 0 0  0.119 0 0  0.12 0 0  0.121 0 0  0.122 0 0  0.123 0 0  0.124 0 0  0.125 0 0  0.126 0 0  0.127 0 0  0.128 0 0  0.129 0 0  0.13 0 0  0.131 0 0  0.132 0 0  0.133 0 0  0.134 0 0  0.135 0 0  0.136 0 0  0.137 0 0  0.138 0 0  0.139 0 0  0.14 0 0  0.141 0 0  0.142 0 0  0.143 0 0  0.144 0 0  0.145 0 0  0.146 0 0  0.147 0 0  0.148 0 0  0.149 0 0  0.15 0 0  0.151 0 0  0.152 0 0  0.153 0 0  0.154 0 0  0.155 0 0  0.156 0 0  0.157 0 0  0.158 0 0  0.159 0 0  0.16 0 0  0.161 0 0  0.162 0 0  0.163 0 0  0.164 0 0  0.165 0 0  0.166 0 0  0.167 0 0  0.168 0 0  0.169 0 0  0.17 0 0  0.171 0 0  0.172 0 0  0.173 0 0  0.174 0 0  0.175 0 0  0.176 0 0  0.177 0 0  0.178 0 0  0.179 0 0  0.18 0 0  0.181 0 0  0.182 0 0  0.183 0 0  0.184 0 0  0.185 0 0  0.186 0 0  0.187 0 0  0.188 0 0  0.189 0 0  0.19 0 0  0.191 0 0  0.192 0 0  0.193 0 0  0.194 0 0  0.195 0 0  0.196 0 0  0.197 0 0  0.198 0 0  0.199 0 0  0.2 0 0  0.201 0 0  0.202 0 0  0.203 0 0  0.204 0 0  0.205 0 0  0.206 0 0  0.207 0 0  0.208 0 0  0.209 0 0  0.21 0 0  0.211 0 0  0.212 0 0  0.213 0 0  0.214 0 0  0.215 0 0  0.216 0 0  0.217 0 0  0.218 0 0  0.219 0 0  0.22 0 0  0.221 0 0  0.222 0 0  0.223 0 0  0.224 0 0  0.225 0 0  0.226 0 0  0.227 0 0  0.228 0 0  0.229 0 0  0.23 0 0  0.231 0 0  0.232 0 0  0.233 0 0  0.234 0 0  0.235 0 0  0.236 0 0  0.237 0 0  0.238 0 0  0.239 0 0  0.24 0 0  0.241 0 0  0.242 0 0  0.243 0 0  0.244 0 0  0.245 0 0  0.246 0 0  0.247 0 0  0.248 0 0  0.249 0 0  0.25 0 0  0.251 0 0  0.252 0 0  0.253 0 0  0.254 0 0  0.255 0 0  0.256 0 0  0.257 0 0  0.258 0 0  0.259 0 0  0.26 0 0  0.261 0 0  0.262 0 0  0.263 0 0  0.264 0 0  0.265 0 0  0.266 0 0  0.267 0 0  0.268 0 0  0.269 0 0  0.27 0 0  0.271 0 0  0.272 0 0  0.273 0 0  0.274 0 0  0.275 0 0  0.276 0 0  0.277 0 0  0.278 0 0  0.279 0 0  0.28 0 0  0.281 0 0  0.282 0 0  0.283 0 0  0.284 0 0  0.285 0 0  0.286 0 0  0.287 0 0  0.288 0 0  0.289 0 0  0.29 0 0  0.291 0 0  0.292 0 0  0.293 0 0  0.294 0 0  0.295 0 0  0.296 0 0  0.297 0 0  0.298 0 0  0.299 0 0  0.3 0 0  0.301 0 0  0.302 0 0  0.303 0 0  0.304 0 0  0.305 0 0  0.306 0 0  0.307 0 0  0.308 0 0  0.309 0 0  0.31 0 0  0.311 0 0  0.312 0 0  0.313 0 0  0.314 0 0  0.315 0 0  0.316 0 0  0.317 0 0  0.318 0 0  0.319 0 0  0.32 0 0  0.321 0 0  0.322 0 0  0.323 0 0  0.324 0 0  0.325 0 0  0.326 0 0  0.327 0 0  0.328 0 0  0.329 0 0  0.33 0 0  0.331 0 0  0.332 0 0  0.333 0 0  0.334 0 0  0.335 0 0  0.336 0 0  0.337 0 0  0.338 0 0  0.339 0 0  0.34 0 0  0.341 0 0  0.342 0 0  0.343 0 0  0.344 0 0  0.345 0 0  0.346 0 0  0.347 0 0  0.348 0 0  0.349 0 0  0.35 0 0  0.351 0 0  0.352 0 0  0.353 0 0  0.354 0 0  0.355 0 0  0.356 0 0  0.357 0 0  0.358 0 0  0.359 0 0  0.36 0 0  0.361 0 0  0.362 0 0  0.363 0 0  0.364 0 0  0.365 0 0  0.366 0 0  0.367 0 0  0.368 0 0  0.369 0 0  0.37 0 0  0.371 0 0  0.372 0 0  0.373 0 0  0.374 0 0  0.375 0 0  0.376 0 0  0.377 0 0  0.378 0 0  0.379 0 0  0.38 0 0  0.381 0 0  0.382 0 0  0.383 0 0  0.384 0 0  0.385 0 0  0.386 0 0  0.387 0 0  0.388 0 0  0.389 0 0  0.39 0 0  0.391 0 0  0.392 0 0  0.393 0 0  0.394 0 0  0.395 0 0  0.396 0 0  0.397 0 0  0.398 0 0  0.399 0 0  0.4 0 0  0.401 0 0  0.402 0 0  0.403 0 0  0.404 0 0  0.405 0 0  0.406 0 0  0.407 0 0  0.408 0 0  0.409 0 0  0.41 0 0  0.411 0 0  0.412 0 0  0.413 0 0  0.414 0 0  0.415 0 0  0.416 0 0  0.417 0 0  0.418 0 0  0.419 0 0  0.42 0 0  0.421 0 0  0.422 0 0  0.423 0 0  0.424 0 0  0.425 0 0  0.426 0 0  0.427 0 0  0.428 0 0  0.429 0 0  0.43 0 0  0.431 0 0  0.432 0 0  0.433 0 0  0.434 0 0  0.435 0 0  0.436 0 0  0.437 0 0  0.438 0 0  0.439 0 0  0.44 0 0  0.441 0 0  0.442 0 0  0.443 0 0  0.444 0 0  0.445 0 0  0.446 0 0  0.447 0 0  0.448 0 0  0.449 0 0  0.45 0 0  0.451 0 0  0.452 0 0  0.453 0 0  0.454 0 0  0.455 0 0  0.456 0 0  0.457 0 0  0.458 0 0  0.459 0 0  0.46 0 0  0.461 0 0  0.462 0 0  0.463 0 0  0.464 0 0  0.465 0 0  0.466 0 0  0.467 0 0  0.468 0 0  0.469 0 0  0.47 0 0  0.471 0 0  0.472 0 0  0.473 0 0  0.474 0 0  0.475 0 0  0.476 0 0  0.477 0 0  0.478 0 0  0.479 0 0  0.48 0 0  0.481 0 0  0.482 0 0  0.483 0 0  0.484 0 0  0.485 0 0  0.486 0 0  0.487 0 0  0.488 0 0  0.489 0 0  0.49 0 0  0.491 0 0  0.492 0 0  0.493 0 0  0.494 0 0  0.495 0 0  0.496 0 0  0.497 0 0  0.498 0 0  0.499 0 0  0.5 0 0  0.501 0 0  0.502 0 0  0.503 0 0  0.504 0 0  0.505 0 0  0.506 0 0  0.507 0 0  0.508 0 0  0.509 0 0  0.51 0 0  0.511 0 0  0.512 0 0  0.513 0 0  0.514 0 0  0.515 0 0  0.516 0 0  0.517 0 0  0.518 0 0  0.519 0 0  0.52 0 0  0.521 0 0  0.522 0 0  0.523 0 0  0.524 0 0  0.525 0 0  0.526 0 0  0.527 0 0  0.528 0 0  0.529 0 0  0.53 0 0  0.531 0 0  0.532 0 0  0.533 0 0  0.534 0 0  0.535 0 0  0.536 0 0  0.537 0 0  0.538 0 0  0.539 0 0  0.54 0 0  0.541 0 0  0.542 0 0  0.543 0 0  0.544 0 0  0.545 0 0  0.546 0 0  0.547 0 0  0.548 0 0  0.549 0 0  0.55 0 0  0.551 0 0  0.552 0 0  0.553 0 0  0.554 0 0  0.555 0 0  0.556 0 0  0.5570000000000001 0 0  0.5580000000000001 0 0  0.5590000000000001 0 0  0.5600000000000001 0 0  0.5610000000000001 0 0  0.5620000000000001 0 0  0.5629999999999999 0 0  0.5639999999999999 0 0  0.5649999999999999 0 0  0.5659999999999999 0 0  0.5669999999999999 0 0  0.5679999999999999 0 0  0.569 0 0  0.57 0 0  0.571 0 0  0.572 0 0  0.573 0 0  0.574 0 0  0.575 0 0  0.576 0 0  0.577 0 0  0.578 0 0  0.579 0 0  0.58 0 0  0.581 0 0  0.582 0 0  0.583 0 0  0.584 0 0  0.585 0 0  0.586 0 0  0.587 0 0  0.588 0 0  0.589 0 0  0.59 0 0  0.591 0 0  0.592 0 0  0.593 0 0  0.594 0 0  0.595 0 0  0.596 0 0  0.597 0 0  0.598 0 0  0.599 0 0  0.6 0 0  0.601 0 0  0.602 0 0  0.603 0 0  0.604 0 0  0.605 0 0  0.606 0 0  0.607 0 0  0.608 0 0  0.609 0 0  0.61 0 0  0.611 0 0  0.612 0 0  0.613 0 0  0.614 0 0  0.615 0 0  0.616 0 0  0.617 0 0  0.618 0 0  0.619 0 0  0.62 0 0  0.621 0 0  0.622 0 0  0.623 0 0  0.624 0 0  0.625 0 0  0.626 0 0  0.627 0 0  0.628 0 0  0.629 0 0  0.63 0 0  0.631 0 0  0.632 0 0  0.633 0 0  0.634 0 0  0.635 0 0  0.636 0 0  0.637 0 0  0.638 0 0  0.639 0 0  0.64 0 0  0.641 0 0  0.642 0 0  0.643 0 0  0.644 0 0  0.645 0 0  0.646 0 0  0.647 0 0  0.648 0 0  0.649 0 0  0.65 0 0  0.651 0 0  0.652 0 0  0.653 0 0  0.654 0 0  0.655 0 0  0.656 0 0  0.657 0 0  0.658 0 0  0.659 0 0  0.66 0 0  0.661 0 0  0.662 0 0  0.663 0 0  0.664 0 0  0.665 0 0  0.666 0 0  0.667 0 0  0.668 0 0  0.669 0 0  0.67 0 0  0.671 0 0  0.672 0 0  0.673 0 0  0.674 0 0  0.675 0 0  0.676 0 0  0.677 0 0  0.678 0 0  0.679 0 0  0.68 0 0  0.681 0 0  0.6820000000000001 0 0  0.6830000000000001 0 0  0.6840000000000001 0 0  0.6850000000000001 0 0  0.6860000000000001 0 0  0.6870000000000001 0 0  0.6879999999999999 0 0  0.6889999999999999 0 0  0.6899999999999999 0 0  0.6909999999999999 0 0  0.6919999999999999 0 0  0.6929999999999999 0 0  0.694 0 0  0.695 0 0  0.696 0 0  0.697 0 0  0.698 0 0  0.699 0 0  0.7 0 0  0.701 0 0  0.702 0 0  0.703 0 0  0.704 0 0  0.705 0 0  0.706 0 0  0.707 0 0  0.708 0 0  0.709 0 0  0.71 0 0  0.711 0 0  0.712 0 0  0.713 0 0  0.714 0 0  0.715 0 0  0.716 0 0  0.717 0 0  0.718 0 0  0.719 0 0  0.72 0 0  0.721 0 0  0.722 0 0  0.723 0 0  0.724 0 0  0.725 0 0  0.726 0 0  0.727 0 0  0.728 0 0  0.729 0 0  0.73 0 0  0.731 0 0  0.732 0 0  0.733 0 0  0.734 0 0  0.735 0 0  0.736 0 0  0.737 0 0  0.738 0 0  0.739 0 0  0.74 0 0  0.741 0 0  0.742 0 0  0.743 0 0  0.744 0 0  0.745 0 0  0.746 0 0  0.747 0 0  0.748 0 0  0.749 0 0  0.75 0 0  0.751 0 0  0.752 0 0  0.753 0 0  0.754 0 0  0.755 0 0  0.756 0 0  0.757 0 0  0.758 0 0  0.759 0 0  0.76 0 0  0.761 0 0  0.762 0 0  0.763 0 0  0.764 0 0  0.765 0 0  0.766 0 0  0.767 0 0  0.768 0 0  0.769 0 0  0.77 0 0  0.771 0 0  0.772 0 0  0.773 0 0  0.774 0 0  0.775 0 0  0.776 0 0  0.777 0 0  0.778 0 0  0.779 0 0  0.78 0 0  0.781 0 0  0.782 0 0  0.783 0 0  0.784 0 0  0.785 0 0  0.786 0 0  0.787 0 0  0.788 0 0  0.789 0 0  0.79 0 0  0.791 0 0  0.792 0 0  0.793 0 0  0.794 0 0  0.795 0 0  0.796 0 0  0.797 0 0  0.798 0 0  0.799 0 0  0.8 0 0  0.801 0 0  0.802 0 0  0.803 0 0  0.804 0 0  0.805 0 0  0.806 0 0  0.8070000000000001 0 0  0.8080000000000001 0 0  0.8090000000000001 0 0  0.8100000000000001 0 0  0.8110000000000001 0 0  0.8120000000000001 0 0  0.8129999999999999 0 0  0.8139999999999999 0 0  0.8149999999999999 0 0  0.8159999999999999 0 0  0.8169999999999999 0 0  0.8179999999999999 0 0  0.819 0 0  0.82 0 0  0.821 0 0  0.822 0 0  0.823 0 0  0.824 0 0  0.825 0 0  0.826 0 0  0.827 0 0  0.828 0 0  0.829 0 0  0.83 0 0  0.831 0 0  0.832 0 0  0.833 0 0  0.834 0 0  0.835 0 0  0.836 0 0  0.837 0 0  0.838 0 0  0.839 0 0  0.84 0 0  0.841 0 0  0
[...]
<PointData  Scalars="f_20-0"> 
<DataArray  type="Float64"  Name="f_20-0"  format="ascii">2.0000230571746744e+00  2.0000232239964744e+00  2.0000237266832421e+00  2.0000245719258718e+00  2.0000257709654625e+00  2.0000273397287351e+00  2.0000292990196145e+00  2.0000316747690472e+00  2.0000344983456455e+00  2.0000378069304978e+00  2.0000416439600404e+00  2.0000460596416700e+00  2.0000511115474615e+00  2.0000568652921622e+00  2.0000633953024787e+00  2.0000707856855611e+00  2.0000791312055495e+00  2.0000885383781140e+00  2.0000991266940051e+00  2.0001110299838727e+00  2.0001243979379129e+00  2.0001393977953286e+00  2.0001562162201099e+00  2.0001750613813298e+00  2.0001961652579405e+00  2.0002197861900228e+00  2.0002462117005471e+00  2.0002757616139917e+00  2.0003087915006663e+00  2.0003456964782456e+00  2.0003869154048957e+00  2.0004329355015349e+00  2.0004842974440820e+00  2.0005416009701786e+00  2.0006055110487440e+00  2.0006767646648753e+00  2.0007561782770478e+00  2.0008446560083222e+00  2.0009431986383199e+00  2.0010529134680946e+00  2.0011750251357157e+00  2.0013108874664081e+00  2.0014619964473583e+00  2.0016300044239812e+00  2.0018167356212682e+00  2.0020242031010405e+00  2.0022546272732251e+00  2.0025104560868212e+00  2.0027943870338012e+00  2.0031093911067357e+00  2.0034587388584630e+00  2.0038460287192490e+00  2.0042752177337020e+00  2.0047506548857932e+00  2.0052771171855905e+00  2.0058598486953199e+00  2.0065046026748319e+00  2.0072176870270448e+00  2.0080060132219062e+00  2.0088771488723314e+00  2.0098393741267291e+00  2.0109017420293198e+00  2.0120741429806173e+00  2.0133673734051216e+00  2.0147932087003095e+00  2.0163644804991168e+00  2.0180951582258286e+00  2.0200004348610534e+00  2.0220968167535354e+00  2.0244022172231246e+00  2.0269360535883867e+00  2.0297193471220805e+00  2.0327748252862698e+00  2.0361270254241295e+00  2.0398023988862399e+00  2.0438294143439277e+00  2.0482386587904200e+00  2.0530629344524272e+00  2.0583373495313753e+00  2.0640994003674917e+00  2.0703890422755391e+00  2.0772487459446647e+00  2.0847235359353227e+00  2.0928610074554022e+00  2.1017113172704893e+00  2.1113271443179618e+00  2.1217636153735491e+00  2.1330781909873355e+00  2.1453305068926314e+00  2.1585821662264517e+00  2.1728964782163080e+00  2.1883381395158774e+00  2.2049728551400452e+00  2.2228668969803147e+00  2.2420865991880738e+00  2.2626977912969255e+00  2.2847651718014146e+00  2.3083516269842863e+00  2.3335175020331236e+00  2.3603198338326403e+00  2.3888115571627635e+00  2.4190406982579873e+00  2.4510495716601839e+00  2.4848739978899728e+00  2.5205425605391079e+00  2.5580759218321623e+00  2.5974862154302829e+00  2.6387765341997391e+00  2.6819405288357641e+00  2.7269621306594827e+00  2.7738154086850764e+00  2.8224645673243391e+00  2.8728640870322777e+00  2.9249590060015587e+00  2.9786853368954813e+00  3.0339706087729730e+00  3.0907345209867234e+00  3.1488896930745587e+00  3.2083424926178319e+00  3.2689939217638191e+00  3.3307405426076389e+00  3.3934754218641507e+00  3.4570890761545563e+00  3.5214704006813968e+00  3.5865075659465648e+00  3.6520888693499152e+00  3.7181035308634569e+00  3.7844424243896562e+00  3.8509987387794431e+00  3.9176685647220189e+00  3.9843514057606999e+00  4.0509506134931215e+00  4.1173737485548152e+00  4.1835328702535559e+00  4.2493447587219677e+00  4.3147310742023670e+00  4.3796184585923319e+00  4.4439385846885937e+00  4.5076281586991991e+00  4.5706288815790659e+00  4.6328873746102115e+00  4.6943550744217291e+00  4.7549881023500031e+00  4.8147471126974724e+00  4.8735971240767508e+00  4.9315073376406344e+00  4.9884509456098147e+00  5.0444049331284466e+00  5.0993498761101144e+00  5.1532697373885012e+00  5.2061516631619451e+00  5.2579857814207163e+00  5.3087650037718550e+00  5.3584848318286591e+00  5.4071431691098368e+00  5.4547401391962493e+00  5.5012779107194216e+00  5.5467605296042999e+00  5.5911937588571403e+00  5.6345849260764131e+00  5.6769427787683924e+00  5.7182773474677608e+00  5.7585998165959431e+00  5.7979224029338017e+00  5.8362582415401407e+00  5.8736212789110391e+00  5.9100261731468384e+00  5.9454882008722274e+00  5.9800231706393330e+00  6.0136473425332833e+00  6.0463773536935337e+00  6.0782301494616258e+00  6.1092229198664247e+00  6.1393730411606908e+00  6.1686980221276864e+00  6.1972154548829641e+00  6.2249429699041281e+00  6.2518981950301100e+00  6.2780987181808223e+00  6.3035620535580188e+00  6.3283056110983855e+00  6.3523466689603465e+00  6.3757023488365396e+00  6.3983895938943762e+00  6.4204251491574196e+00  6.4418255441504044e+00  6.4626070776406719e+00  6.4827858043183415e+00  6.5023775232668042e+00  6.5213977680840962e+00  6.5398617985242726e+00  6.5577845935360370e+00  6.5751808455838692e+00  6.5920649561441724e+00  6.6084510322761547e+00  6.6243528841739003e+00  6.6397840236123580e+00  6.6547576632060412e+00  6.6692867164049670e+00  6.6833837981575783e+00  6.6970612261755402e+00  6.7103310227400312e+00  6.7232049169934980e+00  6.7356943476651567e+00  6.7478104661823028e+00  6.7595641401232420e+00  6.7709659569710317e+00  6.7820262281304560e+00  6.7927549931735891e+00  6.8031620242822077e+00  6.8132568308577284e+00  6.8230486642719939e+00  6.8325465227342859e+00  6.8417591562521798e+00  6.8506950716657409e+00  6.8593625377363763e+00  6.8677695902734026e+00  6.8759240372828465e+00  6.8838334641245309e+00  6.8915052386648252e+00  6.8989465164136341e+00  6.9061642456353605e+00  6.9131651724247458e+00  6.9199558457392403e+00  6.9265426223807491e+00  6.9329316719201532e+00  6.9391289815589898e+00  6.9451403609232578e+00  6.9509714467850001e+00  6.9566277077079084e+00  6.9621144486137716e+00  6.9674368152670239e+00  6.9725997986751427e+00  6.9776082394031285e+00  6.9824668318005187e+00  6.9871801281399257e+00  6.9917525426662603e+00  6.9961883555561517e+00  7.0004917167873453e+00  7.0046666499180361e+00  7.0087170557763843e+00  7.0126467160605976e+00  7.0164592968501278e+00  7.0201583520287327e+00  7.0237473266202342e+00  7.0272295600379788e+00  7.0306082892490434e+00  7.0338866518543863e+00  7.0370676890862178e+00  7.0401543487238598e+00  7.0431494879295400e+00  7.0460558760055223e+00  7.0488761970740645e+00  7.0516130526816934e+00  7.0542689643293937e+00  7.0568463759302107e+00  7.0593476561958655e+00  7.0617751009539838e+00  7.0641309353975137e+00  7.0664173162679313e+00  7.0686363339738207e+00  7.0707900146464091e+00  7.0728803221336376e+00  7.0749091599343235e+00  7.0768783730739564e+00  7.0787897499236738e+00  7.0806450239638963e+00  7.0824458754941464e+00  7.0841939332904715e+00  7.0858907762119676e+00  7.0875379347577967e+00  7.0891368925760574e+00  7.0906890879259254e+00  7.0921959150944085e+00  7.0936587257689503e+00  7.0950788303672585e+00  7.0964574993255676e+00  7.0977959643465445e+00  7.0990954196080960e+00  7.1003570229341761e+00  7.1015818969287876e+00  7.1027711300742826e+00  7.1039257777950189e+00  7.1050468634874475e+00  7.1061353795176903e+00  7.1071922881875409e+00  7.1082185226699330e+00  7.1092149879147906e+00  7.1101825615261660e+00  7.1111220946116172e+00  7.1120344126046362e+00  7.1129203160609951e+00  7.1137805814298796e+00  7.1146159618004976e+00  7.1154271876250652e+00  7.1162149674188209e+00  7.1169799884378619e+00  7.1177229173354641e+00  7.1184444007976060e+00  7.1191450661583540e+00  7.1198255219957121e+00  7.1204863587086491e+00  7.1211281490758145e+00  7.1217514487965801e+00  7.1223567970149793e+00  7.1229447168270710e+00  7.1235157157722817e+00  7.1240702863092151e+00  7.1246089062764799e+00  7.1251320393389461e+00  7.1256401354199710e+00  7.1261336311200072e+00  7.1266129501220421e+00  7.1270785035842916e+00  7.1275306905205662e+00  7.1279698981686890e+00  7.1283965023473996e+00  7.1288108678020343e+00  7.1292133485394231e+00  7.1296042881523087e+00  7.1299840201336373e+00  7.1303528681810491e+00  7.1307111464918753e+00  7.1310591600489488e+00  7.1313972048975440e+00  7.1317255684137066e+00  7.1320445295642436e+00  7.1323543591586951e+00  7.1326553200934582e+00  7.1329476675884038e+00  7.1332316494161585e+00  7.1335075061243352e+00  7.1337754712508854e+00  7.1340357715328624e+00  7.1342886271087380e+00  7.1345342517145189e+00  7.1347728528738488e+00  7.1350046320822793e+00  7.1352297849859170e+00  7.1354485015545901e+00  7.1356609662497563e+00  7.1358673581872711e+00  7.1360678512952074e+00  7.1362626144668733e+00  7.1364518117091817e+00  7.1366356022865194e+00  7.1368141408602623e+00  7.1369875776240379e+00  7.1371560584349503e+00  7.1373197249407889e+00  7.1374787147034278e+00  7.1376331613185169e+00  7.1377831945315382e+00  7.1379289403503874e+00  7.1380705211546065e+00  7.1382080558012841e+00  7.1383416597278275e+00  7.1384714450516347e+00  7.1385975206668002e+00  7.1387199923379310e+00  7.1388389627911506e+00  7.1389545318024208e+00  7.1390667962832035e+00  7.1391758503635989e+00  7.1392817854729884e+00  7.1393846904183320e+00  7.1394846514600916e+00  7.1395817523859408e+00  7.1396760745822840e+00  7.1397676971036610e+00  7.1398566967401154e+00  7.1399431480825601e+00  7.1400271235862238e+00  7.1401086936322447e+00  7.1401879265874300e+00  7.1402648888622835e+00  7.1403396449673053e+00  7.1404122575676716e+00  7.1404827875362971e+00  7.1405512940053368e+00  7.1406178344162043e+00  7.1406824645681155e+00  7.1407452386652173e+00  7.1408062093623466e+00  7.1408654278094552e+00  7.1409229436947559e+00  7.1409788052865855e+00  7.1410330594740774e+00  7.1410857518066519e+00  7.1411369265323419e+00  7.1411866266350463e+00  7.1412348938706609e+00  7.1412817688021955e+00  7.1413272908338783e+00  7.1413714982442444e+00  7.1414144282183187e+00  7.1414561168788087e+00  7.1414965993164810e+00  7.1415359096195683e+00  7.1415740809024149e+00  7.1416111453332496e+00  7.1416471341611789e+00  7.1416820777423986e+00  7.1417160055656623e+00  7.1417489462770103e+00  7.1417809277037945e+00  7.1418119768780208e+00  7.1418421200590050e+00  7.1418713827554088e+00  7.1418997897466010e+00  7.1419273651034763e+00  7.1419541322086006e+00  7.1419801137758379e+00  7.1420053318693881e+00  7.1420298079222890e+00  7.1420535627543851e+00  7.1420766165897867e+00  7.1420989890738236e+00  7.1421206992895270e+00  7.1421417657736095e+00  7.1421622065320207e+00  7.1421820390550295e+00  7.1422012803318911e+00  7.1422199468650760e+00  7.1422380546841007e+00  7.1422556193589521e+00  7.1422726560131204e+00  7.1422891793362613e+00  7.1423052035964796e+00  7.1423207426522630e+00  7.1423358099640568e+00  7.1423504186055071e+00  7.1423645812743564e+00  7.1423783103030303e+00  7.1423916176689008e+00  7.1424045150042330e+00  7.1424170136058498e+00  7.1424291244444831e+00  7.1424408581738410e+00  7.1424522251394054e+00  7.1424632353869413e+00  7.1424738986707412e+00  7.1424842244616098e+00  7.1424942219545855e+00  7.1425039000764192e+00  7.1425132674928005e+00  7.1425223326153429e+00  7.1425311036083281e+00  7.1425395883952332e+00  7.1425477946650195e+00  7.1425557298782030e+00  7.1425634012727075e+00  7.1425708158695107e+00  7.1425779804780696e+00  7.1425849017015652e+00  7.1425915859419193e+00  7.1425980394046507e+00  7.1426042681035034e+00  7.1426102778649208e+00  7.1426160743323281e+00  7.1426216629702415e+00  7.1426270490681905e+00  7.1426322377444977e+00  7.1426372339498716e+00  7.1426420424708610e+00  7.1426466679331391e+00  7.1426511148046474e+00  7.1426553873985936e+00  7.1426594898763076e+00  7.1426634262499542e+00  7.1426672003851213e+00  7.1426708160032923e+00  7.1426742766841596e+00  7.1426775858678546e+00  7.1426807468570468e+00  7.1426837628189288e+00  7.1426866367871060e+00  7.1426893716633648e+00  7.1426919702193556e+00  7.1426944350981714e+00  7.1426967688158456e+00  7.1426989737627427e+00  7.1427010522048713e+00  7.1427030062851227e+00  7.1427048380244074e+00  7.1427065493227397e+00  7.1427081419602256e+00  7.1427096175979852e+00  7.1427109777790179e+00  7.1427122239289762e+00  7.1427133573568913e+00  7.1427143792558292e+00  7.1427152907034763e+00  7.1427160926626820e+00  7.1427167859819223e+00  7.1427173713957188e+00  7.1427178495249892e+00  7.1427182208773541e+00  7.1427184858473742e+00  7.1427186447167443e+00  7.1427186976544279e+00  7.1427186447167443e+00  7.1427184858473733e+00  7.1427182208773550e+00  7.1427178495249910e+00  7.1427173713957197e+00  7.1427167859819214e+00  7.1427160926626794e+00  7.1427152907034710e+00  7.1427143792558248e+00  7.1427133573568895e+00  7.1427122239289753e+00  7.1427109777790196e+00  7.1427096175979887e+00  7.1427081419602274e+00  7.1427065493227406e+00  7.1427048380244091e+00  7.1427030062851227e+00  7.1427010522048713e+00  7.1426989737627427e+00  7.1426967688158456e+00  7.1426944350981714e+00  7.1426919702193548e+00  7.1426893716633648e+00  7.1426866367871069e+00  7.1426837628189279e+00  7.1426807468570441e+00  7.1426775858678511e+00  7.1426742766841569e+00  7.1426708160032915e+00  7.1426672003851213e+00  7.1426634262499542e+00  7.1426594898763076e+00  7.1426553873985936e+00  7.1426511148046474e+00  7.1426466679331391e+00  7.1426420424708610e+00  7.1426372339498716e+00  7.1426322377444986e+00  7.1426270490681913e+00  7.1426216629702415e+00  7.1426160743323281e+00  7.1426102778649190e+00  7.1426042681035016e+00  7.1425980394046480e+00  7.1425915859419185e+00  7.1425849017015617e+00  7.1425779804780669e+00  7.1425708158695063e+00  7.1425634012727048e+00  7.1425557298782030e+00  7.1425477946650204e+00  7.1425395883952341e+00  7.1425311036083272e+00  7.1425223326153420e+00  7.1425132674928014e+00  7.1425039000764174e+00  7.1424942219545846e+00  7.1424842244616071e+00  7.1424738986707403e+00  7.1424632353869404e+00  7.1424522251394027e+00  7.1424408581738392e+00  7.1424291244444786e+00  7.1424170136058454e+00  7.1424045150042277e+00  7.1423916176688937e+00  7.1423783103030258e+00  7.1423645812743519e+00  7.1423504186055018e+00  7.1423358099640515e+00  7.1423207426522550e+00  7.1423052035964725e+00  7.1422891793362560e+00  7.1422726560131187e+00  7.1422556193589495e+00  7.1422380546840989e+00  7.1422199468650742e+00  7.1422012803318911e+00  7.1421820390550304e+00  7.1421622065320207e+00  7.1421417657736086e+00  7.1421206992895243e+00  7.1420989890738218e+00  7.1420766165897831e+00  7.1420535627543851e+00  7.1420298079222899e+00  7.1420053318693899e+00  7.1419801137758405e+00  7.1419541322086024e+00  7.1419273651034789e+00  7.1418997897466019e+00  7.1418713827554088e+00  7.1418421200590094e+00  7.1418119768780235e+00  7.1417809277037989e+00  7.1417489462770103e+00  7.1417160055656623e+00  7.1416820777423986e+00  7.1416471341611789e+00  7.1416111453332496e+00  7.1415740809024149e+00  7.1415359096195683e+00  7.1414965993164810e+00  7.1414561168788122e+00  7.1414144282183187e+00  7.1413714982442436e+00  7.1413272908338783e+00  7.1412817688021955e+00  7.1412348938706582e+00  7.1411866266350454e+00  7.1411369265323419e+00  7.1410857518066511e+00  7.1410330594740756e+00  7.1409788052865819e+00  7.1409229436947523e+00  7.1408654278094517e+00  7.1408062093623421e+00  7.1407452386652155e+00  7.1406824645681164e+00  7.1406178344162052e+00  7.1405512940053377e+00  7.1404827875362962e+00  7.1404122575676707e+00  7.1403396449673044e+00  7.1402648888622835e+00  7.1401879265874317e+00  7.1401086936322455e+00  7.1400271235862247e+00  7.1399431480825619e+00  7.1398566967401198e+00  7.1397676971036628e+00  7.1396760745822867e+00  7.1395817523859435e+00  7.1394846514600925e+00  7.1393846904183320e+00  7.1392817854729875e+00  7.1391758503635963e+00  7.1390667962832071e+00  7.1389545318024261e+00  7.1388389627911533e+00  7.1387199923379319e+00  7.1385975206668011e+00  7.1384714450516373e+00  7.1383416597278284e+00  7.1382080558012833e+00  7.1380705211546038e+00  7.1379289403503865e+00  7.1377831945315338e+00  7.1376331613185151e+00  7.1374787147034278e+00  7.1373197249407880e+00  7.1371560584349503e+00  7.1369875776240397e+00  7.1368141408602606e+00  7.1366356022865194e+00  7.1364518117091817e+00  7.1362626144668724e+00  7.1360678512952074e+00  7.1358673581872720e+00  7.1356609662497563e+00  7.1354485015545910e+00  7.1352297849859188e+00  7.1350046320822846e+00  7.1347728528738532e+00  7.1345342517145216e+00  7.1342886271087398e+00  7.1340357715328624e+00  7.1337754712508845e+00  7.1335075061243334e+00  7.1332316494161576e+00  7.1329476675883994e+00  7.1326553200934555e+00  7.1323543591586942e+00  7.1320445295642463e+00  7.1317255684137084e+00  7.1313972048975476e+00  7.1310591600489515e+00  7.1307111464918762e+00  7.1303528681810500e+00  7.1299840201336364e+00  7.1296042881523061e+00  7.1292133485394231e+00  7.1288108678020343e+00  7.1283965023473987e+00  7.1279698981686863e+00  7.1275306905205618e+00  7.1270785035842916e+00  7.1266129501220448e+00  7.1261336311200099e+00  7.1256401354199710e+00  7.1251320393389470e+00  7.1246089062764808e+00  7.1240702863092178e+00  7.1235157157722808e+00  7.1229447168270710e+00  7.1223567970149793e+00  7.1217514487965818e+00  7.1211281490758189e+00  7.1204863587086518e+00  7.1198255219957129e+00  7.1191450661583513e+00  7.1184444007976060e+00  7.1177229173354641e+00  7.1169799884378619e+00  7.1162149674188209e+00  7.1154271876250652e+00  7.1146159618004976e+00  7.1137805814298805e+00  7.1129203160609951e+00  7.1120344126046326e+00  7.1111220946116172e+00  7.1101825615261660e+00  7.1092149879147879e+00  7.1082185226699330e+00  7.1071922881875409e+00  7.1061353795176903e+00  7.1050468634874484e+00  7.1039257777950198e+00  7.1027711300742844e+00  7.1015818969287876e+00  7.1003570229341744e+00  7.0990954196080942e+00  7.0977959643465409e+00  7.0964574993255640e+00  7.0950788303672567e+00  7.0936587257689485e+00  7.0921959150944094e+00  7.0906890879259281e+00  7.0891368925760583e+00  7.0875379347578003e+00  7.0858907762119703e+00  7.0841939332904706e+00  7.0824458754941464e+00  7.0806450239638954e+00  7.0787897499236712e+00  7.0768783730739520e+00  7.0749091599343208e+00  7.0728803221336367e+00  7.0707900146464064e+00  7.0686363339738207e+00  7.0664173162679305e+00  7.0641309353975119e+00  7.0617751009539820e+00  7.0593476561958646e+00  7.0568463759302116e+00  7.0542689643293937e+00  7.0516130526816934e+00  7.0488761970740645e+00  7.0460558760055232e+00  7.0431494879295409e+00  7.0401543487238571e+00  7.0370676890862152e+00  7.0338866518543846e+00  7.0306082892490416e+00  7.0272295600379788e+00  7.0237473266202368e+00  7.0201583520287327e+00  7.0164592968501287e+00  7.0126467160605994e+00  7.0087170557763852e+00  7.0046666499180397e+00  7.0004917167873479e+00  6.9961883555561544e+00  6.9917525426662586e+00  6.9871801281399248e+00  6.9824668318005152e+00  6.9776082394031276e+00  6.9725997986751436e+00  6.9674368152670247e+00  6.9621144486137716e+00  6.9566277077079066e+00  6.9509714467849957e+00  6.9451403609232552e+00  6.9391289815589863e+00  6.9329316719201524e+00  6.9265426223807482e+00  6.9199558457392403e+00  6.9131651724247449e+00  6.9061642456353596e+00  6.8989465164136288e+00  6.8915052386648252e+00  6.8838334641245291e+00  6.8759240372828412e+00  6.8677695902733999e+00  6.8593625377363736e+00  6.8506950716657382e+00  6.8417591562521789e+00  6.8325465227342850e+00  6.8230486642719930e+00  6.8132568308577284e+00  6.8031620242822086e+00  6.7927549931735909e+00  6.7820262281304560e+00  6.7709659569710334e+00  6.7595641401232438e+00  6.7478104661823020e+00  6.7356943476651567e+00  6.7232049169934989e+00  6.7103310227400321e+00  6.6970612261755411e+00  6.6833837981575774e+00  6.6692867164049678e+00  6.6547576632060421e+00  6.6397840236123580e+00  6.6243528841739021e+00  6.6084510322761547e+00  6.5920649561441742e+00  6.5751808455838718e+00  6.5577845935360406e+00  6.5398617985242744e+00  6.5213977680841024e+00  6.5023775232668068e+00  6.4827858043183459e+00  6.4626070776406745e+00  6.4418255441504062e+00  6.4204251491574222e+00  6.3983895938943807e+00  6.3757023488365414e+00  6.3523466689603492e+00  6.3283056110983873e+00  6.3035620535580215e+00  6.2780987181808232e+00  6.2518981950301127e+00  6.2249429699041334e+00  6.1972154548829677e+00  6.1686980221276890e+00  6.1393730411606935e+00  6.1092229198664230e+00  6.0782301494616