<?xml version="1.0"?>
<VTKFile type="UnstructuredGrid"  version="0.1"  >
<UnstructuredGrid>
<Piece  NumberOfPoints="1001" NumberOfCells="1000">
<Points>
<DataArray  type="Float64"  NumberOfComponents="3"  format="ascii">0 0 0  0.001 0 0  0.002 0 0  0.003 0 0  0.004 0 0  0.005 0 0  0.006 0 0  0.007 0 0  0.008 0 0  0.008999999999999999 0 0  0.01 0 0  0.011 0 0  0.012 0 0  0.013 0 0  0.014 0 0  0.015 0 0  0.016 0 0  0.017 0 0  0.018 0 0  0.019 0 0  0.02 0 0  0.021 0 0  0.022 0 0  0.023 0 0  0.024 0 0  0.025 0 0  0.026 0 0  0.027 0 0  0.028 0 0  0.029 0 0  0.03 0 0  0.031 0 0  0.032 0 0  0.033 0 0  0.034 0 0  0.035 0 0  0.036 0 0  0.037 0 0  0.038 0 0  0.039 0 0  0.04 0 0  0.041 0 0  0.042 0 0  0.043 0 0  0.044 0 0  0.045 0 0  0.046 0 0  0.047 0 0  0.048 0 0  0.049 0 0  0.05 0 0  0.051 0 0  0.052 0 0  0.053 0 0  0.054 0 0  0.055 0 0  0.056 0 0  0.057 0 0  0.058 0 0  0.059 0 0  0.06 0 0  0.061 0 0  0.062 0 0  0.063 0 0  0.064 0 0  0.065 0 0  0.066 0 0  0.067 0 0  0.068 0 0  0.06900000000000001 0 0  0.07000000000000001 0 0  0.07099999999999999 0 0  0.07199999999999999 0 0  0.073 0 0  0.074 0 0  0.075 0 0  0.076 0 0  0.077 0 0  0.078 0 0  0.079 0 0  0.08 0 0  0.081 0 0  0.082 0 0  0.083 0 0  0.08400000000000001 0 0  0.08500000000000001 0 0  0.08599999999999999 0 0  0.08699999999999999 0 0  0.08799999999999999 0 0  0.089 0 0  0.09 0 0  0.091 0 0  0.092 0 0  0.093 0 0  0.094 0 0  0.095 0 0  0.096 0 0  0.097 0 0  0.098 0 0  0.099 0 0  0.1 0 0  0.101 0 0  0.102 0 0  0.103 0 0  0.104 0 0  0.105 0 0  0.106 0 0  0.107 0 0  0.108 0 0  0.109 0 0  0.11 0 0  0.111 0 0  0.112 0 0  0.113 0 0  0.114 0 0  0.115 0 0  0.116 0 0  0.117 0 0  0.118 0 0  0.119 0 0  0.12 0 0  0.121 0 0  0.122 0 0  0.123 0 0  0.124 0 0  0.125 0 0  0.126 0 0  0.127 0 0  0.128 0 0  0.129 0 0  0.13 0 0  0.131 0 0  0.132 0 0  0.133 0 0  0.134 0 0  0.135 0 0  0.136 0 0  0.137 0 0  0.138 0 0  0.139 0 0  0.14 0 0  0.141 0 0  0.142 0 0  0.143 0 0  0.144 0 0  0.145 0 0  0.146 0 0  0.147 0 0  0.148 0 0  0.149 0 0  0.15 0 0  0.151 0 0  0.152 0 0  0.153 0 0  0.154 0 0  0.155 0 0  0.156 0 0  0.157 0 0  0.158 0 0  0.159 0 0  0.16 0 0  0.161 0 0  0.162 0 0  0.163 0 0  0.164 0 0  0.165 0 0  0.166 0 0  0.167 0 0  0.168 0 0  0.169 0 0  0.17 0 0  0.171 0 0  0.172 0 0  0.173 0 0  0.174 0 0  0.175 0 0  0.176 0 0  0.177 0 0  0.178 0 0  0.179 0 0  0.18 0 0  0.181 0 0  0.182 0 0  0.183 0 0  0.184 0 0  0.185 0 0  0.186 0 0  0.187 0 0  0.188 0 0  0.189 0 0  0.19 0 0  0.191 0 0  0.192 0 0  0.193 0 0  0.194 0 0  0.195 0 0  0.196 0 0  0.197 0 0  0.198 0 0  0.199 0 0  0.2 0 0  0.201 0 0  0.202 0 0  0.203 0 0  0.204 0 0  0.205 0 0  0.206 0 0  0.207 0 0  0.208 0 0  0.209 0 0  0.21 0 0  0.211 0 0  0.212 0 0  0.213 0 0  0.214 0 0  0.215 0 0  0.216 0 0  0.217 0 0  0.218 0 0  0.219 0 0  0.22 0 0  0.221 0 0  0.222 0 0  0.223 0 0  0.224 0 0  0.225 0 0  0.226 0 0  0.227 0 0  0.228 0 0  0.229 0 0  0.23 0 0  0.231 0 0  0.232 0 0  0.233 0 0  0.234 0 0  0.235 0 0  0.236 0 0  0.237 0 0  0.238 0 0  0.239 0 0  0.24 0 0  0.241 0 0  0.242 0 0  0.243 0 0  0.244 0 0  0.245 0 0  0.246 0 0  0.247 0 0  0.248 0 0  0.249 0 0  0.25 0 0  0.251 0 0  0.252 0 0  0.253 0 0  0.254 0 0  0.255 0 0  0.256 0 0  0.257 0 0  0.258 0 0  0.259 0 0  0.26 0 0  0.261 0 0  0.262 0 0  0.263 0 0  0.264 0 0  0.265 0 0  0.266 0 0  0.267 0 0  0.268 0 0  0.269 0 0  0.27 0 0  0.271 0 0  0.272 0 0  0.273 0 0  0.274 0 0  0.275 0 0  0.276 0 0  0.277 0 0  0.278 0 0  0.279 0 0  0.28 0 0  0.281 0 0  0.282 0 0  0.283 0 0  0.284 0 0  0.285 0 0  0.286 0 0  0.287 0 0  0.288 0 0  0.289 0 0  0.29 0 0  0.291 0 0  0.292 0 0  0.293 0 0  0.294 0 0  0.295 0 0  0.296 0 0  0.297 0 0  0.298 0 0  0.299 0 0  0.3 0 0  0.301 0 0  0.302 0 0  0.303 0 0  0.304 0 0  0.305 0 0  0.306 0 0  0.307 0 0  0.308 0 0  0.309 0 0  0.31 0 0  0.311 0 0  0.312 0 0  0.313 0 0  0.314 0 0  0.315 0 0  0.316 0 0  0.317 0 0  0.318 0 0  0.319 0 0  0.32 0 0  0.321 0 0  0.322 0 0  0.323 0 0  0.324 0 0  0.325 0 0  0.326 0 0  0.327 0 0  0.328 0 0  0.329 0 0  0.33 0 0  0.331 0 0  0.332 0 0  0.333 0 0  0.334 0 0  0.335 0 0  0.336 0 0  0.337 0 0  0.338 0 0  0.339 0 0  0.34 0 0  0.341 0 0  0.342 0 0  0.343 0 0  0.344 0 0  0.345 0 0  0.346 0 0  0.347 0 0  0.348 0 0  0.349 0 0  0.35 0 0  0.351 0 0  0.352 0 0  0.353 0 0  0.354 0 0  0.355 0 0  0.356 0 0  0.357 0 0  0.358 0 0  0.359 0 0  0.36 0 0  0.361 0 0  0.362 0 0  0.363 0 0  0.364 0 0  0.365 0 0  0.366 0 0  0.367 0 0  0.368 0 0  0.369 0 0  0.37 0 0  0.371 0 0  0.372 0 0  0.373 0 0  0.374 0 0  0.375 0 0  0.376 0 0  0.377 0 0  0.378 0 0  0.379 0 0  0.38 0 0  0.381 0 0  0.382 0 0  0.383 0 0  0.384 0 0  0.385 0 0  0.386 0 0  0.387 0 0  0.388 0 0  0.389 0 0  0.39 0 0  0.391 0 0  0.392 0 0  0.393 0 0  0.394 0 0  0.395 0 0  0.396 0 0  0.397 0 0  0.398 0 0  0.399 0 0  0.4 0 0  0.401 0 0  0.402 0 0  0.403 0 0  0.404 0 0  0.405 0 0  0.406 0 0  0.407 0 0  0.408 0 0  0.409 0 0  0.41 0 0  0.411 0 0  0.412 0 0  0.413 0 0  0.414 0 0  0.415 0 0  0.416 0 0  0.417 0 0  0.418 0 0  0.419 0 0  0.42 0 0  0.421 0 0  0.422 0 0  0.423 0 0  0.424 0 0  0.425 0 0  0.426 0 0  0.427 0 0  0.428 0 0  0.429 0 0  0.43 0 0  0.431 0 0  0.432 0 0  0.433 0 0  0.434 0 0  0.435 0 0  0.436 0 0  0.437 0 0  0.438 0 0  0.439 0 0  0.44 0 0  0.441 0 0  0.442 0 0  0.443 0 0  0.444 0 0  0.445 0 0  0.446 0 0  0.447 0 0  0.448 0 0  0.449 0 0  0.45 0 0  0.451 0 0  0.452 0 0  0.453 0 0  0.454 0 0  0.455 0 0  0.456 0 0  0.457 0 0  0.458 0 0  0.459 0 0  0.46 0 0  0.461 0 0  0.462 0 0  0.463 0 0  0.464 0 0  0.465 0 0  0.466 0 0  0.467 0 0  0.468 0 0  0.469 0 0  0.47 0 0  0.471 0 0  0.472 0 0  0.473 0 0  0.474 0 0  0.475 0 0  0.476 0 0  0.477 0 0  0.478 0 0  0.479 0 0  0.48 0 0  0.481 0 0  0.482 0 0  0.483 0 0  0.484 0 0  0.485 0 0  0.486 0 0  0.487 0 0  0.488 0 0  0.489 0 0  0.49 0 0  0.491 0 0  0.492 0 0  0.493 0 0  0.494 0 0  0.495 0 0  0.496 0 0  0.497 0 0  0.498 0 0  0.499 0 0  0.5 0 0  0.501 0 0  0.502 0 0  0.503 0 0  0.504 0 0  0.505 0 0  0.506 0 0  0.507 0 0  0.508 0 0  0.509 0 0  0.51 0 0  0.511 0 0  0.512 0 0  0.513 0 0  0.514 0 0  0.515 0 0  0.516 0 0  0.517 0 0  0.518 0 0  0.519 0 0  0.52 0 0  0.521 0 0  0.522 0 0  0.523 0 0  0.524 0 0  0.525 0 0  0.526 0 0  0.527 0 0  0.528 0 0  0.529 0 0  0.53 0 0  0.531 0 0  0.532 0 0  0.533 0 0  0.534 0 0  0.535 0 0  0.536 0 0  0.537 0 0  0.538 0 0  0.539 0 0  0.54 0 0  0.541 0 0  0.542 0 0  0.543 0 0  0.544 0 0  0.545 0 0  0.546 0 0  0.547 0 0  0.548 0 0  0.549 0 0  0.55 0 0  0.551 0 0  0.552 0 0  0.553 0 0  0.554 0 0  0.555 0 0  0.556 0 0  0.5570000000000001 0 0  0.5580000000000001 0 0  0.5590000000000001 0 0  0.5600000000000001 0 0  0.5610000000000001 0 0  0.5620000000000001 0 0  0.5629999999999999 0 0  0.5639999999999999 0 0  0.5649999999999999 0 0  0.5659999999999999 0 0  0.5669999999999999 0 0  0.5679999999999999 0 0  0.569 0 0  0.57 0 0  0.571 0 0  0.572 0 0  0.573 0 0  0.574 0 0  0.575 0 0  0.576 0 0  0.577 0 0  0.578 0 0  0.579 0 0  0.58 0 0  0.581 0 0  0.582 0 0  0.583 0 0  0.584 0 0  0.585 0 0  0.586 0 0  0.587 0 0  0.588 0 0  0.589 0 0  0.59 0 0  0.591 0 0  0.592 0 0  0.593 0 0  0.594 0 0  0.595 0 0  0.596 0 0  0.597 0 0  0.598 0 0  0.599 0 0  0.6 0 0  0.601 0 0  0.602 0 0  0.603 0 0  0.604 0 0  0.605 0 0  0.606 0 0  0.607 0 0  0.608 0 0  0.609 0 0  0.61 0 0  0.611 0 0  0.612 0 0  0.613 0 0  0.614 0 0  0.615 0 0  0.616 0 0  0.617 0 0  0.618 0 0  0.619 0 0  0.62 0 0  0.621 0 0  0.622 0 0  0.623 0 0  0.624 0 0  0.625 0 0  0.626 0 0  0.627 0 0  0.628 0 0  0.629 0 0  0.63 0 0  0.631 0 0  0.632 0 0  0.633 0 0  0.634 0 0  0.635 0 0  0.636 0 0  0.637 0 0  0.638 0 0  0.639 0 0  0.64 0 0  0.641 0 0  0.642 0 0  0.643 0 0  0.644 0 0  0.645 0 0  0.646 0 0  0.647 0 0  0.648 0 0  0.649 0 0  0.65 0 0  0.651 0 0  0.652 0 0  0.653 0 0  0.654 0 0  0.655 0 0  0.656 0 0  0.657 0 0  0.658 0 0  0.659 0 0  0.66 0 0  0.661 0 0  0.662 0 0  0.663 0 0  0.664 0 0  0.665 0 0  0.666 0 0  0.667 0 0  0.668 0 0  0.669 0 0  0.67 0 0  0.671 0 0  0.672 0 0  0.673 0 0  0.674 0 0  0.675 0 0  0.676 0 0  0.677 0 0  0.678 0 0  0.679 0 0  0.68 0 0  0.681 0 0  0.6820000000000001 0 0  0.6830000000000001 0 0  0.6840000000000001 0 0  0.6850000000000001 0 0  0.6860000000000001 0 0  0.6870000000000001 0 0  0.6879999999999999 0 0  0.6889999999999999 0 0  0.6899999999999999 0 0  0.6909999999999999 0 0  0.6919999999999999 0 0  0.6929999999999999 0 0  0.694 0 0  0.695 0 0  0.696 0 0  0.697 0 0  0.698 0 0  0.699 0 0  0.7 0 0  0.701 0 0  0.702 0 0  0.703 0 0  0.704 0 0  0.705 0 0  0.706 0 0  0.707 0 0  0.708 0 0  0.709 0 0  0.71 0 0  0.711 0 0  0.712 0 0  0.713 0 0  0.714 0 0  0.715 0 0  0.716 0 0  0.717 0 0  0.718 0 0  0.719 0 0  0.72 0 0  0.721 0 0  0.722 0 0  0.723 0 0  0.724 0 0  0.725 0 0  0.726 0 0  0.727 0 0  0.728 0 0  0.729 0 0  0.73 0 0  0.731 0 0  0.732 0 0  0.733 0 0  0.734 0 0  0.735 0 0  0.736 0 0  0.737 0 0  0.738 0 0  0.739 0 0  0.74 0 0  0.741 0 0  0.742 0 0  0.743 0 0  0.744 0 0  0.745 0 0  0.746 0 0  0.747 0 0  0.748 0 0  0.749 0 0  0.75 0 0  0.751 0 0  0.752 0 0  0.753 0 0  0.754 0 0  0.755 0 0  0.756 0 0  0.757 0 0  0.758 0 0  0.759 0 0  0.76 0 0  0.761 0 0  0.762 0 0  0.763 0 0  0.764 0 0  0.765 0 0  0.766 0 0  0.767 0 0  0.768 0 0  0.769 0 0  0.77 0 0  0.771 0 0  0.772 0 0  0.773 0 0  0.774 0 0  0.775 0 0  0.776 0 0  0.777 0 0  0.778 0 0  0.779 0 0  0.78 0 0  0.781 0 0  0.782 0 0  0.783 0 0  0.784 0 0  0.785 0 0  0.786 0 0  0.787 0 0  0.788 0 0  0.789 0 0  0.79 0 0  0.791 0 0  0.792 0 0  0.793 0 0  0.794 0 0  0.795 0 0  0.796 0 0  0.797 0 0  0.798 0 0  0.799 0 0  0.8 0 0  0.801 0 0  0.802 0 0  0.803 0 0  0.804 0 0  0.805 0 0  0.806 0 0  0.8070000000000001 0 0  0.8080000000000001 0 0  0.8090000000000001 0 0  0.8100000000000001 0 0  0.8110000000000001 0 0  0.8120000000000001 0 0  0.8129999999999999 0 0  0.8139999999999999 0 0  0.8149999999999999 0 0  0.8159999999999999 0 0  0.8169999999999999 0 0  0.8179999999999999 0 0  0.819 0 0  0.82 0 0  0.821 0 0  0.822 0 0  0.823 0 0  0.824 0 0  0.825 0 0  0.826 0 0  0.827 0 0  0.828 0 0  0.829 0 0  0.83 0 0  0.831 0 0  0.832 0 0  0.833 0 0  0.834 0 0  0.835 0 0  0.836 0 0  0.837 0 0  0.838 0 0  0.839 0 0  0.84 0 0  0.841 0 0  0
[...]
<PointData  Scalars="f_20-0"> 
<DataArray  type="Float64"  Name="f_20-0"  format="ascii">6.9427010530721853e+00  6.9427976651695680e+00  6.9430870140571779e+00  6.9435676434795353e+00  6.9442371460745234e+00  6.9450921925178584e+00  6.9461285714385141e+00  6.9473412392533405e+00  6.9487243788738322e+00  6.9502714660761553e+00  6.9519753422009058e+00  6.9538282917647063e+00  6.9558221235224362e+00  6.9579482535162613e+00  6.9601977886834749e+00  6.9625616096660581e+00  6.9650304515665278e+00  6.9675949815213780e+00  6.9702458721097864e+00  6.9729738697748651e+00  6.9757698576015441e+00  6.9786249119636565e+00  6.9815303527174013e+00  6.9844777867747458e+00  6.9874591450345136e+00  6.9904667127781224e+00  6.9934931537490570e+00  6.9965315282289451e+00  6.9995753054981877e+00  7.0026183711257852e+00  7.0056550295720097e+00  7.0086800026104896e+00  7.0116884240844719e+00  7.0146758315077138e+00  7.0176381550054758e+00  7.0205717040674829e+00  7.0234731525546028e+00  7.0263395223661718e+00  7.0291681661369179e+00  7.0319567492930890e+00  7.0347032317576215e+00  7.0374058495553458e+00  7.0400630965318154e+00  7.0426737063643197e+00  7.0452366350111681e+00  7.0477510437158903e+00  7.0502162826564962e+00  7.0526318753066626e+00  7.0549975035554011e+00  7.0573129936143166e+00  7.0595783027267904e+00  7.0617935066812558e+00  7.0639587881206083e+00  7.0660744256318395e+00  7.0681407835936012e+00  7.0701583027547290e+00  7.0721274915131858e+00  7.0740489178626067e+00  7.0759232019719969e+00  7.0777510093636016e+00  7.0795330446536502e+00  7.0812700458211841e+00  7.0829627789708711e+00  7.0846120335566685e+00  7.0862186180345166e+00  7.0877833559135706e+00  7.0893070821769237e+00  7.0907906400444061e+00  7.0922348780513955e+00  7.0936406474193241e+00  7.0950087996949529e+00  7.0963401846369534e+00  7.0976356483298346e+00  7.0988960315065608e+00  7.1001221680624731e+00  7.1013148837444522e+00  7.1024749950003541e+00  7.1036033079748675e+00  7.1047006176389527e+00  7.1057677070410321e+00  7.1068053466689838e+00  7.1078142939128028e+00  7.1087952926186011e+00  7.1097490727254282e+00  7.1106763499768970e+00  7.1115778257004294e+00  7.1124541866473834e+00  7.1133061048879291e+00  7.1141342377550236e+00  7.1149392278323722e+00  7.1157217029815207e+00  7.1164822764038842e+00  7.1172215467336253e+00  7.1179400981578294e+00  7.1186385005606381e+00  7.1193173096883262e+00  7.1199770673326013e+00  7.1206183015295910e+00  7.1212415267722671e+00  7.1218472442342575e+00  7.1224359420031469e+00  7.1230080953216230e+00  7.1235641668349166e+00  7.1241046068431535e+00  7.1246298535574333e+00  7.1251403333584697e+00  7.1256364610568212e+00  7.1261186401538552e+00  7.1265872631026097e+00  7.1270427115678832e+00  7.1274853566849306e+00  7.1279155593161940e+00  7.1283336703056506e+00  7.1287400307302677e+00  7.1291349721483126e+00  7.1295188168441035e+00  7.1298918780690101e+00  7.1302544602784401e+00  7.1306068593646454e+00  7.1309493628851683e+00  7.1312822502868523e+00  7.1316057931252432e+00  7.1319202552794021e+00  7.1322258931620102e+00  7.1325229559247569e+00  7.1328116856590054e+00  7.1330923175917302e+00  7.1333650802767359e+00  7.1336301957811923e+00  7.1338878798675269e+00  7.1341383421707150e+00  7.1343817863710006e+00  7.1346184103621715e+00  7.1348484064153768e+00  7.1350719613386087e+00  7.1352892566319186e+00  7.1355004686384405e+00  7.1357057686912793e+00  7.1359053232564067e+00  7.1360992940715873e+00  7.1362878382814623e+00  7.1364711085688608e+00  7.1366492532824379e+00  7.1368224165607126e+00  7.1369907384525977e+00  7.1371543550345375e+00  7.1373133985242863e+00  7.1374679973914494e+00  7.1376182764648819e+00  7.1377643570369935e+00  7.1379063569650611e+00  7.1380443907696387e+00  7.1381785697301332e+00  7.1383090019776176e+00  7.1384357925849597e+00  7.1385590436543715e+00  7.1386788544024045e+00  7.1387953212425037e+00  7.1389085378651549e+00  7.1390185953157363e+00  7.1391255820700872e+00  7.1392295841079010e+00  7.1393306849840164e+00  7.1394289658975874e+00  7.1395245057593115e+00  7.1396173812566559e+00  7.1397076669172508e+00  7.1397954351703978e+00  7.1398807564068232e+00  7.1399636990367057e+00  7.1400443295460088e+00  7.1401227125511966e+00  7.1401989108523747e+00  7.1402729854848817e+00  7.1403449957693921e+00  7.1404149993606030e+00  7.1404830522944627e+00  7.1405492090340941e+00  7.1406135225143581e+00  7.1406760441851480e+00  7.1407368240534490e+00  7.1407959107241528e+00  7.1408533514397439e+00  7.1409091921188264e+00  7.1409634773935249e+00  7.1410162506458557e+00  7.1410675540430120e+00  7.1411174285716719e+00  7.1411659140713057e+00  7.1412130492665362e+00  7.1412588717985637e+00  7.1413034182557285e+00  7.1413467242031423e+00  7.1413888242115267e+00  7.1414297518852052e+00  7.1414695398892887e+00  7.1415082199761173e+00  7.1415458230109135e+00  7.1415823789967341e+00  7.1416179170986931e+00  7.1416524656675042e+00  7.1416860522623598e+00  7.1417187036731473e+00  7.1417504459420469e+00  7.1417813043845069e+00  7.1418113036096358e+00  7.1418404675400051e+00  7.1418688194309006e+00  7.1418963818890235e+00  7.1419231768906535e+00  7.1419492257993289e+00  7.1419745493829883e+00  7.1419991678306518e+00  7.1420231007686290e+00  7.1420463672762562e+00  7.1420689859012230e+00  7.1420909746744057e+00  7.1421123511243554e+00  7.1421331322913186e+00  7.1421533347408985e+00  7.1421729745773144e+00  7.1421920674562971e+00  7.1422106285976117e+00  7.1422286727972404e+00  7.1422462144392149e+00  7.1422632675071167e+00  7.1422798455952536e+00  7.1422959619195243e+00  7.1423116293279820e+00  7.1423268603110959e+00  7.1423416670117215e+00  7.1423560612348034e+00  7.1423700544567899e+00  7.1423836578348032e+00  7.1423968822155324e+00  7.1424097381438871e+00  7.1424222358714173e+00  7.1424343853644805e+00  7.1424461963121875e+00  7.1424576781341322e+00  7.1424688399879006e+00  7.1424796907763550e+00  7.1424902391547471e+00  7.1425004935375966e+00  7.1425104621054079e+00  7.1425201528111772e+00  7.1425295733867271e+00  7.1425387313488651e+00  7.1425476340053704e+00  7.1425562884607992e+00  7.1425647016221605e+00  7.1425728802043915e+00  7.1425808307357208e+00  7.1425885595628475e+00  7.1425960728559987e+00  7.1426033766138417e+00  7.1426104766682466e+00  7.1426173786889384e+00  7.1426240881879899e+00  7.1426306105242237e+00  7.1426369509074572e+00  7.1426431144026630e+00  7.1426491059339776e+00  7.1426549302886366e+00  7.1426605921207633e+00  7.1426660959550823e+00  7.1426714461905076e+00  7.1426766471036460e+00  7.1426817028522018e+00  7.1426866174782644e+00  7.1426913949115409e+00  7.1426960389724696e+00  7.1427005533752546e+00  7.1427049417308233e+00  7.1427092075497010e+00  7.1427133542447914e+00  7.1427173851340955e+00  7.1427213034433468e+00  7.1427251123085789e+00  7.1427288147786134e+00  7.1427324138174830e+00  7.1427359123067928e+00  7.1427393130480086e+00  7.1427426187646796e+00  7.1427458321046107e+00  7.1427489556419594e+00  7.1427519918792859e+00  7.1427549432495478e+00  7.1427578121180213e+00  7.1427606007841904e+00  7.1427633114835816e+00  7.1427659463895221e+00  7.1427685076148872e+00  7.1427709972137663e+00  7.1427734171831077e+00  7.1427757694642953e+00  7.1427780559447003e+00  7.1427802784591750e+00  7.1427824387915217e+00  7.1427845386759001e+00  7.1427865797982175e+00  7.1427885637974606e+00  7.1427904922670056e+00  7.1427923667558808e+00  7.1427941887700008e+00  7.1427959597733715e+00  7.1427976811892382e+00  7.1427993544012356e+00  7.1428009807544788e+00  7.1428025615566346e+00  7.1428040980789609e+00  7.1428055915573312e+00  7.1428070431931969e+00  7.1428084541545651e+00  7.1428098255769097e+00  7.1428111585640899e+00  7.1428124541892180e+00  7.1428137134955252e+00  7.1428149374971799e+00  7.1428161271801072e+00  7.1428172835027626e+00  7.1428184073969065e+00  7.1428194997683399e+00  7.1428205614976239e+00  7.1428215934407913e+00  7.1428225964300127e+00  7.1428235712742820e+00  7.1428245187600368e+00  7.1428254396518032e+00  7.1428263346927956e+00  7.1428272046055143e+00  7.1428280500923158e+00  7.1428288718359818e+00  7.1428296705002561e+00  7.1428304467303727e+00  7.1428312011535802e+00  7.1428319343796352e+00  7.1428326470012893e+00  7.1428333395947590e+00  7.1428340127201917e+00  7.1428346669221092e+00  7.1428353027298446e+00  7.1428359206579595e+00  7.1428365212066653e+00  7.1428371048622088e+00  7.1428376720972757e+00  7.1428382233713510e+00  7.1428387591311040e+00  7.1428392798107296e+00  7.1428397858323054e+00  7.1428402776061271e+00  7.1428407555310311e+00  7.1428412199947164e+00  7.1428416713740628e+00  7.1428421100354145e+00  7.1428425363348929e+00  7.1428429506186637e+00  7.1428433532232232e+00  7.1428437444756714e+00  7.1428441246939656e+00  7.1428444941871740e+00  7.1428448532557312e+00  7.1428452021916735e+00  7.1428455412788745e+00  7.1428458707932689e+00  7.1428461910030743e+00  7.1428465021690144e+00  7.1428468045445133e+00  7.1428470983759107e+00  7.1428473839026569e+00  7.1428476613574983e+00  7.1428479309666741e+00  7.1428481929500860e+00  7.1428484475214846e+00  7.1428486948886318e+00  7.1428489352534807e+00  7.1428491688123241e+00  7.1428493957559596e+00  7.1428496162698352e+00  7.1428498305342121e+00  7.1428500387242959e+00  7.1428502410103825e+00  7.1428504375579944e+00  7.1428506285280156e+00  7.1428508140768177e+00  7.1428509943563840e+00  7.1428511695144410e+00  7.1428513396945679e+00  7.1428515050363144e+00  7.1428516656753152e+00  7.1428518217433909e+00  7.1428519733686668e+00  7.1428521206756717e+00  7.1428522637854295e+00  7.1428524028155680e+00  7.1428525378804046e+00  7.1428526690910470e+00  7.1428527965554727e+00  7.1428529203786288e+00  7.1428530406625050e+00  7.1428531575062193e+00  7.1428532710060981e+00  7.1428533812557564e+00  7.1428534883461703e+00  7.1428535923657472e+00  7.1428536934004105e+00  7.1428537915336499e+00  7.1428538868466029e+00  7.1428539794181143e+00  7.1428540693247990e+00  7.1428541566411141e+00  7.1428542414393972e+00  7.1428543237899484e+00  7.1428544037610777e+00  7.1428544814191524e+00  7.1428545568286586e+00  7.1428546300522555e+00  7.1428547011508243e+00  7.1428547701835114e+00  7.1428548372077820e+00  7.1428549022794661e+00  7.1428549654528011e+00  7.1428550267804747e+00  7.1428550863136753e+00  7.1428551441021213e+00  7.1428552001941110e+00  7.1428552546365580e+00  7.1428553074750285e+00  7.1428553587537769e+00  7.1428554085157847e+00  7.1428554568027938e+00  7.1428555036553405e+00  7.1428555491127907e+00  7.1428555932133593e+00  7.1428556359941568e+00  7.1428556774912169e+00  7.1428557177395113e+00  7.1428557567729953e+00  7.1428557946246247e+00  7.1428558313263828e+00  7.1428558669093141e+00  7.1428559014035411e+00  7.1428559348382876e+00  7.1428559672419132e+00  7.1428559986419193e+00  7.1428560290649878e+00  7.1428560585369905e+00  7.1428560870830147e+00  7.1428561147273850e+00  7.1428561414936791e+00  7.1428561674047479e+00  7.1428561924827401e+00  7.1428562167490988e+00  7.1428562402246119e+00  7.1428562629293957e+00  7.1428562848829298e+00  7.1428563061040728e+00  7.1428563266110654e+00  7.1428563464215600e+00  7.1428563655526176e+00  7.1428563840207433e+00  7.1428564018418763e+00  7.1428564190314123e+00  7.1428564356042239e+00  7.1428564515746595e+00  7.1428564669565597e+00  7.1428564817632658e+00  7.1428564960076404e+00  7.1428565097020673e+00  7.1428565228584606e+00  7.1428565354882778e+00  7.1428565476025279e+00  7.1428565592117801e+00  7.1428565703261748e+00  7.1428565809554296e+00  7.1428565911088411e+00  7.1428566007953025e+00  7.1428566100232995e+00  7.1428566188009279e+00  7.1428566271358909e+00  7.1428566350355132e+00  7.1428566425067368e+00  7.1428566495561343e+00  7.1428566561899123e+00  7.1428566624139167e+00  7.1428566682336303e+00  7.1428566736541885e+00  7.1428566786803751e+00  7.1428566833166256e+00  7.1428566875670398e+00  7.1428566914353722e+00  7.1428566949250394e+00  7.1428566980391324e+00  7.1428567007804054e+00  7.1428567031512875e+00  7.1428567051538749e+00  7.1428567067899422e+00  7.1428567080609380e+00  7.1428567089679875e+00  7.1428567095118947e+00  7.1428567096931443e+00  7.1428567095118947e+00  7.1428567089679866e+00  7.1428567080609362e+00  7.1428567067899422e+00  7.1428567051538749e+00  7.1428567031512866e+00  7.1428567007804071e+00  7.1428566980391333e+00  7.1428566949250403e+00  7.1428566914353731e+00  7.1428566875670416e+00  7.1428566833166300e+00  7.1428566786803787e+00  7.1428566736541939e+00  7.1428566682336339e+00  7.1428566624139185e+00  7.1428566561899149e+00  7.1428566495561352e+00  7.1428566425067368e+00  7.1428566350355123e+00  7.1428566271358909e+00  7.1428566188009279e+00  7.1428566100232986e+00  7.1428566007953016e+00  7.1428565911088420e+00  7.1428565809554296e+00  7.1428565703261766e+00  7.1428565592117810e+00  7.1428565476025279e+00  7.1428565354882778e+00  7.1428565228584642e+00  7.1428565097020718e+00  7.1428564960076431e+00  7.1428564817632649e+00  7.1428564669565562e+00  7.1428564515746560e+00  7.1428564356042212e+00  7.1428564190314106e+00  7.1428564018418736e+00  7.1428563840207424e+00  7.1428563655526185e+00  7.1428563464215609e+00  7.1428563266110681e+00  7.1428563061040711e+00  7.1428562848829289e+00  7.1428562629293939e+00  7.1428562402246110e+00  7.1428562167490997e+00  7.1428561924827392e+00  7.1428561674047506e+00  7.1428561414936791e+00  7.1428561147273841e+00  7.1428560870830147e+00  7.1428560585369896e+00  7.1428560290649878e+00  7.1428559986419202e+00  7.1428559672419141e+00  7.1428559348382930e+00  7.1428559014035464e+00  7.1428558669093212e+00  7.1428558313263881e+00  7.1428557946246292e+00  7.1428557567729989e+00  7.1428557177395158e+00  7.1428556774912195e+00  7.1428556359941622e+00  7.1428555932133619e+00  7.1428555491127916e+00  7.1428555036553423e+00  7.1428554568027947e+00  7.1428554085157812e+00  7.1428553587537751e+00  7.1428553074750267e+00  7.1428552546365589e+00  7.1428552001941128e+00  7.1428551441021222e+00  7.1428550863136779e+00  7.1428550267804782e+00  7.1428549654528037e+00  7.1428549022794714e+00  7.1428548372077865e+00  7.1428547701835150e+00  7.1428547011508252e+00  7.1428546300522573e+00  7.1428545568286603e+00  7.1428544814191559e+00  7.1428544037610822e+00  7.1428543237899556e+00  7.1428542414394016e+00  7.1428541566411168e+00  7.1428540693248053e+00  7.1428539794181169e+00  7.1428538868466074e+00  7.1428537915336534e+00  7.1428536934004150e+00  7.1428535923657508e+00  7.1428534883461703e+00  7.1428533812557564e+00  7.1428532710060981e+00  7.1428531575062193e+00  7.1428530406625041e+00  7.1428529203786280e+00  7.1428527965554709e+00  7.1428526690910434e+00  7.1428525378804020e+00  7.1428524028155644e+00  7.1428522637854241e+00  7.1428521206756663e+00  7.1428519733686651e+00  7.1428518217433874e+00  7.1428516656753143e+00  7.1428515050363162e+00  7.1428513396945696e+00  7.1428511695144410e+00  7.1428509943563832e+00  7.1428508140768141e+00  7.1428506285280156e+00  7.1428504375579935e+00  7.1428502410103833e+00  7.1428500387242959e+00  7.1428498305342103e+00  7.1428496162698343e+00  7.1428493957559578e+00  7.1428491688123241e+00  7.1428489352534816e+00  7.1428486948886327e+00  7.1428484475214855e+00  7.1428481929500878e+00  7.1428479309666777e+00  7.1428476613575036e+00  7.1428473839026596e+00  7.1428470983759107e+00  7.1428468045445133e+00  7.1428465021690126e+00  7.1428461910030734e+00  7.1428458707932654e+00  7.1428455412788727e+00  7.1428452021916717e+00  7.1428448532557276e+00  7.1428444941871714e+00  7.1428441246939611e+00  7.1428437444756687e+00  7.1428433532232205e+00  7.1428429506186593e+00  7.1428425363348893e+00  7.1428421100354127e+00  7.1428416713740592e+00  7.1428412199947147e+00  7.1428407555310285e+00  7.1428402776061262e+00  7.1428397858323063e+00  7.1428392798107287e+00  7.1428387591311022e+00  7.1428382233713492e+00  7.1428376720972730e+00  7.1428371048622061e+00  7.1428365212066609e+00  7.1428359206579577e+00  7.1428353027298410e+00  7.1428346669221092e+00  7.1428340127201917e+00  7.1428333395947616e+00  7.1428326470012911e+00  7.1428319343796378e+00  7.1428312011535819e+00  7.1428304467303727e+00  7.1428296705002525e+00  7.1428288718359774e+00  7.1428280500923140e+00  7.1428272046055135e+00  7.1428263346927974e+00  7.1428254396518067e+00  7.1428245187600403e+00  7.1428235712742838e+00  7.1428225964300145e+00  7.1428215934407904e+00  7.1428205614976248e+00  7.1428194997683407e+00  7.1428184073969092e+00  7.1428172835027679e+00  7.1428161271801116e+00  7.1428149374971852e+00  7.1428137134955278e+00  7.1428124541892215e+00  7.1428111585640943e+00  7.1428098255769150e+00  7.1428084541545678e+00  7.1428070431931996e+00  7.1428055915573330e+00  7.1428040980789627e+00  7.1428025615566320e+00  7.1428009807544788e+00  7.1427993544012383e+00  7.1427976811892400e+00  7.1427959597733697e+00  7.1427941887699991e+00  7.1427923667558755e+00  7.1427904922669994e+00  7.1427885637974553e+00  7.1427865797982140e+00  7.1427845386758984e+00  7.1427824387915209e+00  7.1427802784591758e+00  7.1427780559447012e+00  7.1427757694642970e+00  7.1427734171831103e+00  7.1427709972137690e+00  7.1427685076148846e+00  7.1427659463895168e+00  7.1427633114835745e+00  7.1427606007841860e+00  7.1427578121180151e+00  7.1427549432495425e+00  7.1427519918792823e+00  7.1427489556419568e+00  7.1427458321046098e+00  7.1427426187646796e+00  7.1427393130480059e+00  7.1427359123067911e+00  7.1427324138174804e+00  7.1427288147786117e+00  7.1427251123085780e+00  7.1427213034433468e+00  7.1427173851340955e+00  7.1427133542447914e+00  7.1427092075497010e+00  7.1427049417308233e+00  7.1427005533752537e+00  7.1426960389724705e+00  7.1426913949115445e+00  7.1426866174782671e+00  7.1426817028522036e+00  7.1426766471036460e+00  7.1426714461905059e+00  7.1426660959550796e+00  7.1426605921207615e+00  7.1426549302886349e+00  7.1426491059339785e+00  7.1426431144026639e+00  7.1426369509074599e+00  7.1426306105242237e+00  7.1426240881879925e+00  7.1426173786889420e+00  7.1426104766682483e+00  7.1426033766138399e+00  7.1425960728559978e+00  7.1425885595628449e+00  7.1425808307357190e+00  7.1425728802043924e+00  7.1425647016221587e+00  7.1425562884608009e+00  7.1425476340053695e+00  7.1425387313488660e+00  7.1425295733867280e+00  7.1425201528111781e+00  7.1425104621054070e+00  7.1425004935375940e+00  7.1424902391547427e+00  7.1424796907763524e+00  7.1424688399878997e+00  7.1424576781341322e+00  7.1424461963121884e+00  7.1424343853644814e+00  7.1424222358714200e+00  7.1424097381438898e+00  7.1423968822155333e+00  7.1423836578348041e+00  7.1423700544567890e+00  7.1423560612348016e+00  7.1423416670117206e+00  7.1423268603110976e+00  7.1423116293279838e+00  7.1422959619195261e+00  7.1422798455952519e+00  7.1422632675071176e+00  7.1422462144392149e+00  7.1422286727972395e+00  7.1422106285976081e+00  7.1421920674562953e+00  7.1421729745773135e+00  7.1421533347408985e+00  7.1421331322913160e+00  7.1421123511243527e+00  7.1420909746744030e+00  7.1420689859012185e+00  7.1420463672762544e+00  7.1420231007686210e+00  7.1419991678306456e+00  7.1419745493829829e+00  7.1419492257993262e+00  7.1419231768906526e+00  7.1418963818890209e+00  7.1418688194308997e+00  7.1418404675400033e+00  7.1418113036096313e+00  7.1417813043845042e+00  7.1417504459420442e+00  7.1417187036731447e+00  7.1416860522623562e+00  7.1416524656675024e+00  7.1416179170986904e+00  7.1415823789967314e+00  7.1415458230109117e+00  7.1415082199761120e+00  7.1414695398892860e+00  7.1414297518852043e+00  7.1413888242115258e+00  7.1413467242031423e+00  7.1413034182557285e+00  7.1412588717985628e+00  7.1412130492665362e+00  7.1411659140713093e+00  7.1411174285716745e+00  7.1410675540430129e+00  7.1410162506458574e+00  7.1409634773935240e+00  7.1409091921188255e+00  7.1408533514397421e+00  7.1407959107241483e+00  7.1407368240534437e+00  7.1406760441851445e+00  7.1406135225143528e+00  7.1405492090340923e+00  7.1404830522944609e+00  7.1404149993606021e+00  7.1403449957693921e+00  7.1402729854848799e+00  7.1401989108523756e+00  7.1401227125511