<?xml version="1.0"?>
<VTKFile type="UnstructuredGrid"  version="0.1"  >
<UnstructuredGrid>
<Piece  NumberOfPoints="1001" NumberOfCells="1000">
<Points>
<DataArray  type="Float64"  NumberOfComponents="3"  format="ascii">0 0 0  0.001 0 0  0.002 0 0  0.003 0 0  0.004 0 0  0.005 0 0  0.006 0 0  0.007 0 0  0.008 0 0  0.008999999999999999 0 0  0.01 0 0  0.011 0 0  0.012 0 0  0.013 0 0  0.014 0 0  0.015 0 0  0.016 0 0  0.017 0 0  0.018 0 0  0.019 0 0  0.02 0 0  0.021 0 0  0.022 0 0  0.023 0 0  0.024 0 0  0.025 0 0  0.026 0 0  0.027 0 0  0.028 0 0  0.029 0 0  0.03 0 0  0.031 0 0  0.032 0 0  0.033 0 0  0.034 0 0  0.035 0 0  0.036 0 0  0.037 0 0  0.038 0 0  0.039 0 0  0.04 0 0  0.041 0 0  0.042 0 0  0.043 0 0  0.044 0 0  0.045 0 0  0.046 0 0  0.047 0 0  0.048 0 0  0.049 0 0  0.05 0 0  0.051 0 0  0.052 0 0  0.053 0 0  0.054 0 0  0.055 0 0  0.056 0 0  0.057 0 0  0.058 0 0  0.059 0 0  0.06 0 0  0.061 0 0  0.062 0 0  0.063 0 0  0.064 0 0  0.065 0 0  0.066 0 0  0.067 0 0  0.068 0 0  0.06900000000000001 0 0  0.07000000000000001 0 0  0.07099999999999999 0 0  0.07199999999999999 0 0  0.073 0 0  0.074 0 0  0.075 0 0  0.076 0 0  0.077 0 0  0.078 0 0  0.079 0 0  0.08 0 0  0.081 0 0  0.082 0 0  0.083 0 0  0.08400000000000001 0 0  0.08500000000000001 0 0  0.08599999999999999 0 0  0.08699999999999999 0 0  0.08799999999999999 0 0  0.089 0 0  0.09 0 0  0.091 0 0  0.092 0 0  0.093 0 0  0.094 0 0  0.095 0 0  0.096 0 0  0.097 0 0  0.098 0 0  0.099 0 0  0.1 0 0  0.101 0 0  0.102 0 0  0.103 0 0  0.104 0 0  0.105 0 0  0.106 0 0  0.107 0 0  0.108 0 0  0.109 0 0  0.11 0 0  0.111 0 0  0.112 0 0  0.113 0 0  0.114 0 0  0.115 0 0  0.116 0 0  0.117 0 0  0.118 0 0  0.119 0 0  0.12 0 0  0.121 0 0  0.122 0 0  0.123 0 0  0.124 0 0  0.125 0 0  0.126 0 0  0.127 0 0  0.128 0 0  0.129 0 0  0.13 0 0  0.131 0 0  0.132 0 0  0.133 0 0  0.134 0 0  0.135 0 0  0.136 0 0  0.137 0 0  0.138 0 0  0.139 0 0  0.14 0 0  0.141 0 0  0.142 0 0  0.143 0 0  0.144 0 0  0.145 0 0  0.146 0 0  0.147 0 0  0.148 0 0  0.149 0 0  0.15 0 0  0.151 0 0  0.152 0 0  0.153 0 0  0.154 0 0  0.155 0 0  0.156 0 0  0.157 0 0  0.158 0 0  0.159 0 0  0.16 0 0  0.161 0 0  0.162 0 0  0.163 0 0  0.164 0 0  0.165 0 0  0.166 0 0  0.167 0 0  0.168 0 0  0.169 0 0  0.17 0 0  0.171 0 0  0.172 0 0  0.173 0 0  0.174 0 0  0.175 0 0  0.176 0 0  0.177 0 0  0.178 0 0  0.179 0 0  0.18 0 0  0.181 0 0  0.182 0 0  0.183 0 0  0.184 0 0  0.185 0 0  0.186 0 0  0.187 0 0  0.188 0 0  0.189 0 0  0.19 0 0  0.191 0 0  0.192 0 0  0.193 0 0  0.194 0 0  0.195 0 0  0.196 0 0  0.197 0 0  0.198 0 0  0.199 0 0  0.2 0 0  0.201 0 0  0.202 0 0  0.203 0 0  0.204 0 0  0.205 0 0  0.206 0 0  0.207 0 0  0.208 0 0  0.209 0 0  0.21 0 0  0.211 0 0  0.212 0 0  0.213 0 0  0.214 0 0  0.215 0 0  0.216 0 0  0.217 0 0  0.218 0 0  0.219 0 0  0.22 0 0  0.221 0 0  0.222 0 0  0.223 0 0  0.224 0 0  0.225 0 0  0.226 0 0  0.227 0 0  0.228 0 0  0.229 0 0  0.23 0 0  0.231 0 0  0.232 0 0  0.233 0 0  0.234 0 0  0.235 0 0  0.236 0 0  0.237 0 0  0.238 0 0  0.239 0 0  0.24 0 0  0.241 0 0  0.242 0 0  0.243 0 0  0.244 0 0  0.245 0 0  0.246 0 0  0.247 0 0  0.248 0 0  0.249 0 0  0.25 0 0  0.251 0 0  0.252 0 0  0.253 0 0  0.254 0 0  0.255 0 0  0.256 0 0  0.257 0 0  0.258 0 0  0.259 0 0  0.26 0 0  0.261 0 0  0.262 0 0  0.263 0 0  0.264 0 0  0.265 0 0  0.266 0 0  0.267 0 0  0.268 0 0  0.269 0 0  0.27 0 0  0.271 0 0  0.272 0 0  0.273 0 0  0.274 0 0  0.275 0 0  0.276 0 0  0.277 0 0  0.278 0 0  0.279 0 0  0.28 0 0  0.281 0 0  0.282 0 0  0.283 0 0  0.284 0 0  0.285 0 0  0.286 0 0  0.287 0 0  0.288 0 0  0.289 0 0  0.29 0 0  0.291 0 0  0.292 0 0  0.293 0 0  0.294 0 0  0.295 0 0  0.296 0 0  0.297 0 0  0.298 0 0  0.299 0 0  0.3 0 0  0.301 0 0  0.302 0 0  0.303 0 0  0.304 0 0  0.305 0 0  0.306 0 0  0.307 0 0  0.308 0 0  0.309 0 0  0.31 0 0  0.311 0 0  0.312 0 0  0.313 0 0  0.314 0 0  0.315 0 0  0.316 0 0  0.317 0 0  0.318 0 0  0.319 0 0  0.32 0 0  0.321 0 0  0.322 0 0  0.323 0 0  0.324 0 0  0.325 0 0  0.326 0 0  0.327 0 0  0.328 0 0  0.329 0 0  0.33 0 0  0.331 0 0  0.332 0 0  0.333 0 0  0.334 0 0  0.335 0 0  0.336 0 0  0.337 0 0  0.338 0 0  0.339 0 0  0.34 0 0  0.341 0 0  0.342 0 0  0.343 0 0  0.344 0 0  0.345 0 0  0.346 0 0  0.347 0 0  0.348 0 0  0.349 0 0  0.35 0 0  0.351 0 0  0.352 0 0  0.353 0 0  0.354 0 0  0.355 0 0  0.356 0 0  0.357 0 0  0.358 0 0  0.359 0 0  0.36 0 0  0.361 0 0  0.362 0 0  0.363 0 0  0.364 0 0  0.365 0 0  0.366 0 0  0.367 0 0  0.368 0 0  0.369 0 0  0.37 0 0  0.371 0 0  0.372 0 0  0.373 0 0  0.374 0 0  0.375 0 0  0.376 0 0  0.377 0 0  0.378 0 0  0.379 0 0  0.38 0 0  0.381 0 0  0.382 0 0  0.383 0 0  0.384 0 0  0.385 0 0  0.386 0 0  0.387 0 0  0.388 0 0  0.389 0 0  0.39 0 0  0.391 0 0  0.392 0 0  0.393 0 0  0.394 0 0  0.395 0 0  0.396 0 0  0.397 0 0  0.398 0 0  0.399 0 0  0.4 0 0  0.401 0 0  0.402 0 0  0.403 0 0  0.404 0 0  0.405 0 0  0.406 0 0  0.407 0 0  0.408 0 0  0.409 0 0  0.41 0 0  0.411 0 0  0.412 0 0  0.413 0 0  0.414 0 0  0.415 0 0  0.416 0 0  0.417 0 0  0.418 0 0  0.419 0 0  0.42 0 0  0.421 0 0  0.422 0 0  0.423 0 0  0.424 0 0  0.425 0 0  0.426 0 0  0.427 0 0  0.428 0 0  0.429 0 0  0.43 0 0  0.431 0 0  0.432 0 0  0.433 0 0  0.434 0 0  0.435 0 0  0.436 0 0  0.437 0 0  0.438 0 0  0.439 0 0  0.44 0 0  0.441 0 0  0.442 0 0  0.443 0 0  0.444 0 0  0.445 0 0  0.446 0 0  0.447 0 0  0.448 0 0  0.449 0 0  0.45 0 0  0.451 0 0  0.452 0 0  0.453 0 0  0.454 0 0  0.455 0 0  0.456 0 0  0.457 0 0  0.458 0 0  0.459 0 0  0.46 0 0  0.461 0 0  0.462 0 0  0.463 0 0  0.464 0 0  0.465 0 0  0.466 0 0  0.467 0 0  0.468 0 0  0.469 0 0  0.47 0 0  0.471 0 0  0.472 0 0  0.473 0 0  0.474 0 0  0.475 0 0  0.476 0 0  0.477 0 0  0.478 0 0  0.479 0 0  0.48 0 0  0.481 0 0  0.482 0 0  0.483 0 0  0.484 0 0  0.485 0 0  0.486 0 0  0.487 0 0  0.488 0 0  0.489 0 0  0.49 0 0  0.491 0 0  0.492 0 0  0.493 0 0  0.494 0 0  0.495 0 0  0.496 0 0  0.497 0 0  0.498 0 0  0.499 0 0  0.5 0 0  0.501 0 0  0.502 0 0  0.503 0 0  0.504 0 0  0.505 0 0  0.506 0 0  0.507 0 0  0.508 0 0  0.509 0 0  0.51 0 0  0.511 0 0  0.512 0 0  0.513 0 0  0.514 0 0  0.515 0 0  0.516 0 0  0.517 0 0  0.518 0 0  0.519 0 0  0.52 0 0  0.521 0 0  0.522 0 0  0.523 0 0  0.524 0 0  0.525 0 0  0.526 0 0  0.527 0 0  0.528 0 0  0.529 0 0  0.53 0 0  0.531 0 0  0.532 0 0  0.533 0 0  0.534 0 0  0.535 0 0  0.536 0 0  0.537 0 0  0.538 0 0  0.539 0 0  0.54 0 0  0.541 0 0  0.542 0 0  0.543 0 0  0.544 0 0  0.545 0 0  0.546 0 0  0.547 0 0  0.548 0 0  0.549 0 0  0.55 0 0  0.551 0 0  0.552 0 0  0.553 0 0  0.554 0 0  0.555 0 0  0.556 0 0  0.5570000000000001 0 0  0.5580000000000001 0 0  0.5590000000000001 0 0  0.5600000000000001 0 0  0.5610000000000001 0 0  0.5620000000000001 0 0  0.5629999999999999 0 0  0.5639999999999999 0 0  0.5649999999999999 0 0  0.5659999999999999 0 0  0.5669999999999999 0 0  0.5679999999999999 0 0  0.569 0 0  0.57 0 0  0.571 0 0  0.572 0 0  0.573 0 0  0.574 0 0  0.575 0 0  0.576 0 0  0.577 0 0  0.578 0 0  0.579 0 0  0.58 0 0  0.581 0 0  0.582 0 0  0.583 0 0  0.584 0 0  0.585 0 0  0.586 0 0  0.587 0 0  0.588 0 0  0.589 0 0  0.59 0 0  0.591 0 0  0.592 0 0  0.593 0 0  0.594 0 0  0.595 0 0  0.596 0 0  0.597 0 0  0.598 0 0  0.599 0 0  0.6 0 0  0.601 0 0  0.602 0 0  0.603 0 0  0.604 0 0  0.605 0 0  0.606 0 0  0.607 0 0  0.608 0 0  0.609 0 0  0.61 0 0  0.611 0 0  0.612 0 0  0.613 0 0  0.614 0 0  0.615 0 0  0.616 0 0  0.617 0 0  0.618 0 0  0.619 0 0  0.62 0 0  0.621 0 0  0.622 0 0  0.623 0 0  0.624 0 0  0.625 0 0  0.626 0 0  0.627 0 0  0.628 0 0  0.629 0 0  0.63 0 0  0.631 0 0  0.632 0 0  0.633 0 0  0.634 0 0  0.635 0 0  0.636 0 0  0.637 0 0  0.638 0 0  0.639 0 0  0.64 0 0  0.641 0 0  0.642 0 0  0.643 0 0  0.644 0 0  0.645 0 0  0.646 0 0  0.647 0 0  0.648 0 0  0.649 0 0  0.65 0 0  0.651 0 0  0.652 0 0  0.653 0 0  0.654 0 0  0.655 0 0  0.656 0 0  0.657 0 0  0.658 0 0  0.659 0 0  0.66 0 0  0.661 0 0  0.662 0 0  0.663 0 0  0.664 0 0  0.665 0 0  0.666 0 0  0.667 0 0  0.668 0 0  0.669 0 0  0.67 0 0  0.671 0 0  0.672 0 0  0.673 0 0  0.674 0 0  0.675 0 0  0.676 0 0  0.677 0 0  0.678 0 0  0.679 0 0  0.68 0 0  0.681 0 0  0.6820000000000001 0 0  0.6830000000000001 0 0  0.6840000000000001 0 0  0.6850000000000001 0 0  0.6860000000000001 0 0  0.6870000000000001 0 0  0.6879999999999999 0 0  0.6889999999999999 0 0  0.6899999999999999 0 0  0.6909999999999999 0 0  0.6919999999999999 0 0  0.6929999999999999 0 0  0.694 0 0  0.695 0 0  0.696 0 0  0.697 0 0  0.698 0 0  0.699 0 0  0.7 0 0  0.701 0 0  0.702 0 0  0.703 0 0  0.704 0 0  0.705 0 0  0.706 0 0  0.707 0 0  0.708 0 0  0.709 0 0  0.71 0 0  0.711 0 0  0.712 0 0  0.713 0 0  0.714 0 0  0.715 0 0  0.716 0 0  0.717 0 0  0.718 0 0  0.719 0 0  0.72 0 0  0.721 0 0  0.722 0 0  0.723 0 0  0.724 0 0  0.725 0 0  0.726 0 0  0.727 0 0  0.728 0 0  0.729 0 0  0.73 0 0  0.731 0 0  0.732 0 0  0.733 0 0  0.734 0 0  0.735 0 0  0.736 0 0  0.737 0 0  0.738 0 0  0.739 0 0  0.74 0 0  0.741 0 0  0.742 0 0  0.743 0 0  0.744 0 0  0.745 0 0  0.746 0 0  0.747 0 0  0.748 0 0  0.749 0 0  0.75 0 0  0.751 0 0  0.752 0 0  0.753 0 0  0.754 0 0  0.755 0 0  0.756 0 0  0.757 0 0  0.758 0 0  0.759 0 0  0.76 0 0  0.761 0 0  0.762 0 0  0.763 0 0  0.764 0 0  0.765 0 0  0.766 0 0  0.767 0 0  0.768 0 0  0.769 0 0  0.77 0 0  0.771 0 0  0.772 0 0  0.773 0 0  0.774 0 0  0.775 0 0  0.776 0 0  0.777 0 0  0.778 0 0  0.779 0 0  0.78 0 0  0.781 0 0  0.782 0 0  0.783 0 0  0.784 0 0  0.785 0 0  0.786 0 0  0.787 0 0  0.788 0 0  0.789 0 0  0.79 0 0  0.791 0 0  0.792 0 0  0.793 0 0  0.794 0 0  0.795 0 0  0.796 0 0  0.797 0 0  0.798 0 0  0.799 0 0  0.8 0 0  0.801 0 0  0.802 0 0  0.803 0 0  0.804 0 0  0.805 0 0  0.806 0 0  0.8070000000000001 0 0  0.8080000000000001 0 0  0.8090000000000001 0 0  0.8100000000000001 0 0  0.8110000000000001 0 0  0.8120000000000001 0 0  0.8129999999999999 0 0  0.8139999999999999 0 0  0.8149999999999999 0 0  0.8159999999999999 0 0  0.8169999999999999 0 0  0.8179999999999999 0 0  0.819 0 0  0.82 0 0  0.821 0 0  0.822 0 0  0.823 0 0  0.824 0 0  0.825 0 0  0.826 0 0  0.827 0 0  0.828 0 0  0.829 0 0  0.83 0 0  0.831 0 0  0.832 0 0  0.833 0 0  0.834 0 0  0.835 0 0  0.836 0 0  0.837 0 0  0.838 0 0  0.839 0 0  0.84 0 0  0.841 0 0  0
[...]
<PointData  Scalars="f_20-0"> 
<DataArray  type="Float64"  Name="f_20-0"  format="ascii">2.0072865519462599e+00  2.0073252915516098e+00  2.0074418671753635e+00  2.0076373517687536e+00  2.0079135420159209e+00  2.0082729709992808e+00  2.0087189259644762e+00  2.0092554712158242e+00  2.0098874761783456e+00  2.0106206486647911e+00  2.0114615733847372e+00  2.0124177557270402e+00  2.0134976708356800e+00  2.0147108179813644e+00  2.0160677802058884e+00  2.0175802891820247e+00  2.0192612951870985e+00  2.0211250420319722e+00  2.0231871467170901e+00  2.0254646835019692e+00  2.0279762719719843e+00  2.0307421685647662e+00  2.0337843608761119e+00  2.0371266639001582e+00  2.0407948171693553e+00  2.0448165815450565e+00  2.0492218341689852e+00  2.0540426598192787e+00  2.0593134366235630e+00  2.0650709137679750e+00  2.0713542785091827e+00  2.0782052094525261e+00  2.0856679127117728e+00  2.0937891372258370e+00  2.1026181651896474e+00  2.1122067732776051e+00  2.1226091601200539e+00  2.1338818353601829e+00  2.1460834655983376e+00  2.1592746726524861e+00  2.1735177798583623e+00  2.1888765026308863e+00  2.2054155802374003e+00  2.2232003467153714e+00  2.2422962401163882e+00  2.2627682507766917e+00  2.2846803110893146e+00  2.3080946312533928e+00  2.3330709876510221e+00  2.3596659727789677e+00  2.3879322179479572e+00  2.4179176021451596e+00  2.4496644624107256e+00  2.4832088226762012e+00  2.5185796591233105e+00  2.5557982206312340e+00  2.5948774226989415e+00  2.6358213323003410e+00  2.6786247594407069e+00  2.7232729687674713e+00  2.7697415215303947e+00  2.8179962546137545e+00  2.8679933994427427e+00  2.9196798394894286e+00  2.9729935010735624e+00  3.0278638683693093e+00  3.0842126101706202e+00  3.1419543031837716e+00  3.2009972345122111e+00  3.2612442646370989e+00  3.3225937315893281e+00  3.3849403771245568e+00  3.4481762764827106e+00  3.5121917546400683e+00  3.5768762737290758e+00  3.6421192783830634e+00  3.7078109880360324e+00  3.7738431275546782e+00  3.8401095898989777e+00  3.9065070267137161e+00  3.9729353647811814e+00  4.0392982480686968e+00  4.1055034066561600e+00  4.1714629551164846e+00  4.2370936239476276e+00  4.3023169284309377e+00  4.3670592798366563e+00  4.4312520442384375e+00  4.4948315543622703e+00  4.5577390799095747e+00  4.6199207616871831e+00  4.6813275146748632e+00  4.7419149048872322e+00  4.8016430045629166e+00  4.8604762298571380e+00  4.9183831648401384e+00  4.9753363752248507e+00  5.0313122148732807e+00  5.0862906277690056e+00  5.1402549477992103e+00  5.1931916983669426e+00  5.2450903935556630e+00  5.2959433422945272e+00  5.3457454567250746e+00  5.3944940657470486e+00  5.4421887345228832e+00  5.4888310905451494e+00  5.5344246567177713e+00  5.5789746917685461e+00  5.6224880381955362e+00  5.6649729778516607e+00  5.7064390951888937e+00  5.7468971481136562e+00  5.7863589463475398e+00  5.8248372371403025e+00  5.8623455981443442e+00  5.8988983372301131e+00  5.9345103989991523e+00  5.9691972777347422e+00  6.0029749365185365e+00  6.0358597322343144e+00  6.0678683461764553e+00  6.0990177199802362e+00  6.1293249965930601e+00  6.1588074660099963e+00  6.1874825155026141e+00  6.2153675840774465e+00  6.2424801209084180e+00  6.2688375474966378e+00  6.2944572233204017e+00  6.3193564147482260e+00  6.3435522669977207e+00  6.3670617789334818e+00  6.3899017805072642e+00  6.4120889126538820e+00  6.4336396094662298e+00  6.4545700824824657e+00  6.4748963069279633e+00  6.4946340097637005e+00  6.5137986594016590e+00  6.5324054569562238e+00  6.5504693289087790e+00  6.5680049210703935e+00  6.5850265937349395e+00  6.6015484179220492e+00  6.6175841726159224e+00  6.6331473429124506e+00  6.6482511189929809e+00  6.6629083958488478e+00  6.6771317736860105e+00  6.6909335589442263e+00  6.7043257658699495e+00  6.7173201185865032e+00  6.7299280536093100e+00  6.7421607227579035e+00  6.7540289964199829e+00  6.7655434671263928e+00  6.7767144533989123e+00  6.7875520038359394e+00  6.7980659014037581e+00  6.8082656679038660e+00  6.8181605685891444e+00  6.8277596169039887e+00  6.8370715793255910e+00  6.8461049802855740e+00  6.8548681071529485e+00  6.8633690152610969e+00  6.8716155329630473e+00  6.8796152667007799e+00  6.8873756060755893e+00  6.8949037289079129e+00  6.9022066062760166e+00  6.9092910075242244e+00  6.9161635052320900e+00  6.9228304801371152e+00  6.9292981260042232e+00  6.9355724544361328e+00  6.9416592996193875e+00  6.9475643230015542e+00  6.9532930178955761e+00  6.9588507140079754e+00  6.9642425818879898e+00  6.9694736372952351e+00  6.9745487454839035e+00  6.9794726254019661e+00  6.9842498538040418e+00  6.9888848692771024e+00  6.9933819761783367e+00  6.9977453484848500e+00  7.0019790335550693e+00  7.0060869558019414e+00  7.0100729202782555e+00  7.0139406161745308e+00  7.0176936202301041e+00  7.0213354000582191e+00  7.0248693173859449e+00  7.0282986312100322e+00  7.0316265008696863e+00  7.0348559890375473e+00  7.0379900646300921e+00  7.0410316056387705e+00  7.0439834018832919e+00  7.0468481576884603e+00  7.0496284944860257e+00  7.0523269533430284e+00  7.0549459974181863e+00  7.0574880143478307e+00  7.0599553185629356e+00  7.0623501535388105e+00  7.0646746939790122e+00  7.0669310479349967e+00  7.0691212588631132e+00  7.0712473076204532e+00  7.0733111144010836e+00  7.0753145406142073e+00  7.0772593907057244e+00  7.0791474139247033e+00  7.0809803060362286e+00  7.0827597109820477e+00  7.0844872224904707e+00  7.0861643856369030e+00  7.0877926983563970e+00  7.0893736129095615e+00  7.0909085373031635e+00  7.0923988366667237e+00  7.0938458345863680e+00  7.0952508143971755e+00  7.0966150204352463e+00  7.0979396592506845e+00  7.0992259007826366e+00  7.1004748794975416e+00  7.1016876954916723e+00  7.1028654155590729e+00  7.1040090742259219e+00  7.1051196747523413e+00  7.1061981901026856e+00  7.1072455638852299e+00  7.1082627112622214e+00  7.1092505198312343e+00  7.1102098504786762e+00  7.1111415382063576e+00  7.1120463929319380e+00  7.1129252002640699e+00  7.1137787222530600e+00  7.1146076981177897e+00  7.1154128449496428e+00  7.1161948583942198e+00  7.1169544133114711e+00  7.1176921644149767e+00  7.1184087468910375e+00  7.1191047769982116e+00  7.1197808526478950e+00  7.1204375539666191e+00  7.1210754438405663e+00  7.1216950684429419e+00  7.1222969577447124e+00  7.1228816260092556e+00  7.1234495722714435e+00  7.1240012808016555e+00  7.1245372215551876e+00  7.1250578506075630e+00  7.1255636105761599e+00  7.1260549310286354e+00  7.1265322288785224e+00  7.1269959087684605e+00  7.1274463634414209e+00  7.1278839741003432e+00  7.1283091107565273e+00  7.1287221325671553e+00  7.1291233881623075e+00  7.1295132159617811e+00  7.1298919444820621e+00  7.1302598926337559e+00  7.1306173700097712e+00  7.1309646771646014e+00  7.1313021058849211e+00  7.1316299394518321e+00  7.1319484528949868e+00  7.1322579132388917e+00  7.1325585797415769e+00  7.1328507041259606e+00  7.1331345308040568e+00  7.1334102970943194e+00  7.1336782334322866e+00  7.1339385635747989e+00  7.1341915047979541e+00  7.1344372680889823e+00  7.1346760583322943e+00  7.1349080744898323e+00  7.1351335097759350e+00  7.1353525518268555e+00  7.1355653828651668e+00  7.1357721798591403e+00  7.1359731146772862e+00  7.1361683542382464e+00  7.1363580606561223e+00  7.1365423913814121e+00  7.1367214993377059e+00  7.1368955330542470e+00  7.1370646367945128e+00  7.1372289506809024e+00  7.1373886108157194e+00  7.1375437493984695e+00  7.1376944948397014e+00  7.1378409718713760e+00  7.1379833016539873e+00  7.1381216018804450e+00  7.1382559868768896e+00  7.1383865677004712e+00  7.1385134522342275e+00  7.1386367452791477e+00  7.1387565486434958e+00  7.1388729612294721e+00  7.1389860791173172e+00  7.1390959956469278e+00  7.1392028014970377e+00  7.1393065847620800e+00  7.1394074310267692e+00  7.1395054234384769e+00  7.1396006427774932e+00  7.1396931675251967e+00  7.1397830739302410e+00  7.1398704360727780e+00  7.1399553259268034e+00  7.1400378134206832e+00  7.1401179664958869e+00  7.1401958511640151e+00  7.1402715315621563e+00  7.1403450700066253e+00  7.1404165270451330e+00  7.1404859615074283e+00  7.1405534305544762e+00  7.1406189897261951e+00  7.1406826929878013e+00  7.1407445927748228e+00  7.1408047400367796e+00  7.1408631842796222e+00  7.1409199736069224e+00  7.1409751547598788e+00  7.1410287731561510e+00  7.1410808729275823e+00  7.1411314969568451e+00  7.1411806869129846e+00  7.1412284832859783e+00  7.1412749254202792e+00  7.1413200515473889e+00  7.1413638988175077e+00  7.1414065033302503e+00  7.1414479001645041e+00  7.1414881234074032e+00  7.1415272061824906e+00  7.1415651806770546e+00  7.1416020781686944e+00  7.1416379290511136e+00  7.1416727628591801e+00  7.1417066082932719e+00  7.1417394932428913e+00  7.1417714448096774e+00  7.1418024893296712e+00  7.1418326523950126e+00  7.1418619588749861e+00  7.1418904329364681e+00  7.1419180980637877e+00  7.1419449770780439e+00  7.1419710921558357e+00  7.1419964648474918e+00  7.1420211160947593e+00  7.1420450662479951e+00  7.1420683350828780e+00  7.1420909418166216e+00  7.1421129051237466e+00  7.1421342431514061e+00  7.1421549735342582e+00  7.1421751134089329e+00  7.1421946794280746e+00  7.1422136877739977e+00  7.1422321541719498e+00  7.1422500939029998e+00  7.1422675218165583e+00  7.1422844523425413e+00  7.1423008995032076e+00  7.1423168769246228e+00  7.1423323978478441e+00  7.1423474751397542e+00  7.1423621213036137e+00  7.1423763484892895e+00  7.1423901685032094e+00  7.1424035928180487e+00  7.1424166325821075e+00  7.1424292986284614e+00  7.1424416014838208e+00  7.1424535513771641e+00  7.1424651582481218e+00  7.1424764317551110e+00  7.1424873812832566e+00  7.1424980159520768e+00  7.1425083446229660e+00  7.1425183759064508e+00  7.1425281181692561e+00  7.1425375795411528e+00  7.1425467679216332e+00  7.1425556909863861e+00  7.1425643561936027e+00  7.1425727707900695e+00  7.1425809418171360e+00  7.1425888761164869e+00  7.1425965803357512e+00  7.1426040609339605e+00  7.1426113241868565e+00  7.1426183761920292e+00  7.1426252228739404e+00  7.1426318699887767e+00  7.1426383231291783e+00  7.1426445877288369e+00  7.1426506690669527e+00  7.1426565722725757e+00  7.1426623023288123e+00  7.1426678640769294e+00  7.1426732622203177e+00  7.1426785013283682e+00  7.1426835858402136e+00  7.1426885200683863e+00  7.1426933082023485e+00  7.1426979543119389e+00  7.1427024623507060e+00  7.1427068361591601e+00  7.1427110794679178e+00  7.1427151959007729e+00  7.1427191889776456e+00  7.1427230621174873e+00  7.1427268186410657e+00  7.1427304617736898e+00  7.1427339946478359e+00  7.1427374203057239e+00  7.1427407417017799e+00  7.1427439617050572e+00  7.1427470831015700e+00  7.1427501085965526e+00  7.1427530408166655e+00  7.1427558823121196e+00  7.1427586355587334e+00  7.1427613029599479e+00  7.1427638868487495e+00  7.1427663894895526e+00  7.1427688130800187e+00  7.1427711597528116e+00  7.1427734315773046e+00  7.1427756305612249e+00  7.1427777586522421e+00  7.1427798177395179e+00  7.1427818096551929e+00  7.1427837361758213e+00  7.1427855990237630e+00  7.1427873998685243e+00  7.1427891403280626e+00  7.1427908219700198e+00  7.1427924463129493e+00  7.1427940148274542e+00  7.1427955289373211e+00  7.1427969900206056e+00  7.1427983994106485e+00  7.1427997583970972e+00  7.1428010682268495e+00  7.1428023301049786e+00  7.1428035451956386e+00  7.1428047146228932e+00  7.1428058394715412e+00  7.1428069207879030e+00  7.1428079595805700e+00  7.1428089568211153e+00  7.1428099134447915e+00  7.1428108303511841e+00  7.1428117084048344e+00  7.1428125484358516e+00  7.1428133512404743e+00  7.1428141175816151e+00  7.1428148481893814e+00  7.1428155437615652e+00  7.1428162049641211e+00  7.1428168324315946e+00  7.1428174267675510e+00  7.1428179885449623e+00  7.1428185183066004e+00  7.1428190165653698e+00  7.1428194838046473e+00  7.1428199204785932e+00  7.1428203270124317e+00  7.1428207038027338e+00  7.1428210512176564e+00  7.1428213695971792e+00  7.1428216592533227e+00  7.1428219204703289e+00  7.1428221535048415e+00  7.1428223585860771e+00  7.1428225359159532e+00  7.1428226856692172e+00  7.1428228079935465e+00  7.1428229030096526e+00  7.1428229708113431e+00  7.1428230114655831e+00  7.1428230250125342e+00  7.1428230114655804e+00  7.1428229708113395e+00  7.1428229030096508e+00  7.1428228079935456e+00  7.1428226856692172e+00  7.1428225359159532e+00  7.1428223585860771e+00  7.1428221535048388e+00  7.1428219204703254e+00  7.1428216592533236e+00  7.1428213695971836e+00  7.1428210512176538e+00  7.1428207038027303e+00  7.1428203270124291e+00  7.1428199204785914e+00  7.1428194838046446e+00  7.1428190165653653e+00  7.1428185183065951e+00  7.1428179885449561e+00  7.1428174267675439e+00  7.1428168324315902e+00  7.1428162049641175e+00  7.1428155437615626e+00  7.1428148481893770e+00  7.1428141175816116e+00  7.1428133512404699e+00  7.1428125484358489e+00  7.1428117084048317e+00  7.1428108303511824e+00  7.1428099134447907e+00  7.1428089568211153e+00  7.1428079595805700e+00  7.1428069207879039e+00  7.1428058394715439e+00  7.1428047146228941e+00  7.1428035451956422e+00  7.1428023301049803e+00  7.1428010682268512e+00  7.1427997583971017e+00  7.1427983994106548e+00  7.1427969900206110e+00  7.1427955289373255e+00  7.1427940148274560e+00  7.1427924463129493e+00  7.1427908219700198e+00  7.1427891403280590e+00  7.1427873998685216e+00  7.1427855990237612e+00  7.1427837361758204e+00  7.1427818096551938e+00  7.1427798177395196e+00  7.1427777586522421e+00  7.1427756305612231e+00  7.1427734315773037e+00  7.1427711597528099e+00  7.1427688130800169e+00  7.1427663894895517e+00  7.1427638868487495e+00  7.1427613029599470e+00  7.1427586355587307e+00  7.1427558823121142e+00  7.1427530408166602e+00  7.1427501085965472e+00  7.1427470831015620e+00  7.1427439617050519e+00  7.1427407417017754e+00  7.1427374203057195e+00  7.1427339946478332e+00  7.1427304617736871e+00  7.1427268186410657e+00  7.1427230621174864e+00  7.1427191889776456e+00  7.1427151959007729e+00  7.1427110794679187e+00  7.1427068361591592e+00  7.1427024623507069e+00  7.1426979543119424e+00  7.1426933082023520e+00  7.1426885200683863e+00  7.1426835858402153e+00  7.1426785013283682e+00  7.1426732622203168e+00  7.1426678640769294e+00  7.1426623023288114e+00  7.1426565722725748e+00  7.1426506690669544e+00  7.1426445877288396e+00  7.1426383231291819e+00  7.1426318699887785e+00  7.1426252228739422e+00  7.1426183761920310e+00  7.1426113241868574e+00  7.1426040609339649e+00  7.1425965803357538e+00  7.1425888761164904e+00  7.1425809418171395e+00  7.1425727707900721e+00  7.1425643561936054e+00  7.1425556909863905e+00  7.1425467679216350e+00  7.1425375795411545e+00  7.1425281181692588e+00  7.1425183759064543e+00  7.1425083446229660e+00  7.1424980159520759e+00  7.1424873812832566e+00  7.1424764317551110e+00  7.1424651582481236e+00  7.1424535513771659e+00  7.1424416014838217e+00  7.1424292986284614e+00  7.1424166325821110e+00  7.1424035928180496e+00  7.1423901685032085e+00  7.1423763484892868e+00  7.1423621213036128e+00  7.1423474751397542e+00  7.1423323978478441e+00  7.1423168769246210e+00  7.1423008995032067e+00  7.1422844523425422e+00  7.1422675218165557e+00  7.1422500939029963e+00  7.1422321541719471e+00  7.1422136877739950e+00  7.1421946794280728e+00  7.1421751134089337e+00  7.1421549735342600e+00  7.1421342431514088e+00  7.1421129051237511e+00  7.1420909418166243e+00  7.1420683350828842e+00  7.1420450662480031e+00  7.1420211160947664e+00  7.1419964648475007e+00  7.1419710921558437e+00  7.1419449770780519e+00  7.1419180980637949e+00  7.1418904329364752e+00  7.1418619588749950e+00  7.1418326523950171e+00  7.1418024893296730e+00  7.1417714448096801e+00  7.1417394932428921e+00  7.1417066082932710e+00  7.1416727628591827e+00  7.1416379290511154e+00  7.1416020781686944e+00  7.1415651806770546e+00  7.1415272061824915e+00  7.1414881234074032e+00  7.1414479001645050e+00  7.1414065033302521e+00  7.1413638988175103e+00  7.1413200515473925e+00  7.1412749254202827e+00  7.1412284832859800e+00  7.1411806869129837e+00  7.1411314969568451e+00  7.1410808729275823e+00  7.1410287731561510e+00  7.1409751547598797e+00  7.1409199736069242e+00  7.1408631842796222e+00  7.1408047400367778e+00  7.1407445927748201e+00  7.1406826929878005e+00  7.1406189897261951e+00  7.1405534305544744e+00  7.1404859615074265e+00  7.1404165270451321e+00  7.1403450700066253e+00  7.1402715315621554e+00  7.1401958511640133e+00  7.1401179664958825e+00  7.1400378134206797e+00  7.1399553259268016e+00  7.1398704360727754e+00  7.1397830739302401e+00  7.1396931675251958e+00  7.1396006427774887e+00  7.1395054234384761e+00  7.1394074310267692e+00  7.1393065847620800e+00  7.1392028014970377e+00  7.1390959956469278e+00  7.1389860791173163e+00  7.1388729612294712e+00  7.1387565486434976e+00  7.1386367452791504e+00  7.1385134522342311e+00  7.1383865677004756e+00  7.1382559868768949e+00  7.1381216018804485e+00  7.1379833016539882e+00  7.1378409718713787e+00  7.1376944948397032e+00  7.1375437493984712e+00  7.1373886108157167e+00  7.1372289506809006e+00  7.1370646367945101e+00  7.1368955330542452e+00  7.1367214993377042e+00  7.1365423913814094e+00  7.1363580606561179e+00  7.1361683542382428e+00  7.1359731146772827e+00  7.1357721798591358e+00  7.1355653828651677e+00  7.1353525518268555e+00  7.1351335097759341e+00  7.1349080744898341e+00  7.1346760583322943e+00  7.1344372680889814e+00  7.1341915047979532e+00  7.1339385635747989e+00  7.1336782334322866e+00  7.1334102970943212e+00  7.1331345308040621e+00  7.1328507041259650e+00  7.1325585797415814e+00  7.1322579132388952e+00  7.1319484528949921e+00  7.1316299394518339e+00  7.1313021058849229e+00  7.1309646771646023e+00  7.1306173700097730e+00  7.1302598926337568e+00  7.1298919444820674e+00  7.1295132159617838e+00  7.1291233881623084e+00  7.1287221325671535e+00  7.1283091107565291e+00  7.1278839741003450e+00  7.1274463634414227e+00  7.1269959087684631e+00  7.1265322288785233e+00  7.1260549310286372e+00  7.1255636105761635e+00  7.1250578506075630e+00  7.1245372215551903e+00  7.1240012808016582e+00  7.1234495722714462e+00  7.1228816260092547e+00  7.1222969577447124e+00  7.1216950684429419e+00  7.1210754438405681e+00  7.1204375539666165e+00  7.1197808526478941e+00  7.1191047769982081e+00  7.1184087468910349e+00  7.1176921644149758e+00  7.1169544133114728e+00  7.1161948583942234e+00  7.1154128449496463e+00  7.1146076981177924e+00  7.1137787222530644e+00  7.1129252002640735e+00  7.1120463929319380e+00  7.1111415382063585e+00  7.1102098504786753e+00  7.1092505198312326e+00  7.1082627112622196e+00  7.1072455638852290e+00  7.1061981901026865e+00  7.1051196747523395e+00  7.1040090742259219e+00  7.1028654155590729e+00  7.1016876954916723e+00  7.1004748794975416e+00  7.0992259007826366e+00  7.0979396592506845e+00  7.0966150204352498e+00  7.0952508143971826e+00  7.0938458345863760e+00  7.0923988366667299e+00  7.0909085373031671e+00  7.0893736129095668e+00  7.0877926983564032e+00  7.0861643856369074e+00  7.0844872224904707e+00  7.0827597109820468e+00  7.0809803060362269e+00  7.0791474139247041e+00  7.0772593907057253e+00  7.0753145406142108e+00  7.0733111144010872e+00  7.0712473076204541e+00  7.0691212588631158e+00  7.0669310479349958e+00  7.0646746939790130e+00  7.0623501535388113e+00  7.0599553185629320e+00  7.0574880143478289e+00  7.0549459974181854e+00  7.0523269533430284e+00  7.0496284944860257e+00  7.0468481576884603e+00  7.0439834018832892e+00  7.0410316056387678e+00  7.0379900646300939e+00  7.0348559890375499e+00  7.0316265008696881e+00  7.0282986312100357e+00  7.0248693173859440e+00  7.0213354000582173e+00  7.0176936202301050e+00  7.0139406161745290e+00  7.0100729202782519e+00  7.0060869558019387e+00  7.0019790335550693e+00  6.9977453484848535e+00  6.9933819761783393e+00  6.9888848692771068e+00  6.9842498538040463e+00  6.9794726254019697e+00  6.9745487454839070e+00  6.9694736372952359e+00  6.9642425818879934e+00  6.9588507140079772e+00  6.9532930178955761e+00  6.9475643230015534e+00  6.9416592996193893e+00  6.9355724544361328e+00  6.9292981260042241e+00  6.9228304801371161e+00  6.9161635052320918e+00  6.9092910075242271e+00  6.9022066062760