<?xml version="1.0"?>
<VTKFile type="UnstructuredGrid"  version="0.1"  >
<UnstructuredGrid>
<Piece  NumberOfPoints="1001" NumberOfCells="1000">
<Points>
<DataArray  type="Float64"  NumberOfComponents="3"  format="ascii">0 0 0  0.001 0 0  0.002 0 0  0.003 0 0  0.004 0 0  0.005 0 0  0.006 0 0  0.007 0 0  0.008 0 0  0.008999999999999999 0 0  0.01 0 0  0.011 0 0  0.012 0 0  0.013 0 0  0.014 0 0  0.015 0 0  0.016 0 0  0.017 0 0  0.018 0 0  0.019 0 0  0.02 0 0  0.021 0 0  0.022 0 0  0.023 0 0  0.024 0 0  0.025 0 0  0.026 0 0  0.027 0 0  0.028 0 0  0.029 0 0  0.03 0 0  0.031 0 0  0.032 0 0  0.033 0 0  0.034 0 0  0.035 0 0  0.036 0 0  0.037 0 0  0.038 0 0  0.039 0 0  0.04 0 0  0.041 0 0  0.042 0 0  0.043 0 0  0.044 0 0  0.045 0 0  0.046 0 0  0.047 0 0  0.048 0 0  0.049 0 0  0.05 0 0  0.051 0 0  0.052 0 0  0.053 0 0  0.054 0 0  0.055 0 0  0.056 0 0  0.057 0 0  0.058 0 0  0.059 0 0  0.06 0 0  0.061 0 0  0.062 0 0  0.063 0 0  0.064 0 0  0.065 0 0  0.066 0 0  0.067 0 0  0.068 0 0  0.06900000000000001 0 0  0.07000000000000001 0 0  0.07099999999999999 0 0  0.07199999999999999 0 0  0.073 0 0  0.074 0 0  0.075 0 0  0.076 0 0  0.077 0 0  0.078 0 0  0.079 0 0  0.08 0 0  0.081 0 0  0.082 0 0  0.083 0 0  0.08400000000000001 0 0  0.08500000000000001 0 0  0.08599999999999999 0 0  0.08699999999999999 0 0  0.08799999999999999 0 0  0.089 0 0  0.09 0 0  0.091 0 0  0.092 0 0  0.093 0 0  0.094 0 0  0.095 0 0  0.096 0 0  0.097 0 0  0.098 0 0  0.099 0 0  0.1 0 0  0.101 0 0  0.102 0 0  0.103 0 0  0.104 0 0  0.105 0 0  0.106 0 0  0.107 0 0  0.108 0 0  0.109 0 0  0.11 0 0  0.111 0 0  0.112 0 0  0.113 0 0  0.114 0 0  0.115 0 0  0.116 0 0  0.117 0 0  0.118 0 0  0.119 0 0  0.12 0 0  0.121 0 0  0.122 0 0  0.123 0 0  0.124 0 0  0.125 0 0  0.126 0 0  0.127 0 0  0.128 0 0  0.129 0 0  0.13 0 0  0.131 0 0  0.132 0 0  0.133 0 0  0.134 0 0  0.135 0 0  0.136 0 0  0.137 0 0  0.138 0 0  0.139 0 0  0.14 0 0  0.141 0 0  0.142 0 0  0.143 0 0  0.144 0 0  0.145 0 0  0.146 0 0  0.147 0 0  0.148 0 0  0.149 0 0  0.15 0 0  0.151 0 0  0.152 0 0  0.153 0 0  0.154 0 0  0.155 0 0  0.156 0 0  0.157 0 0  0.158 0 0  0.159 0 0  0.16 0 0  0.161 0 0  0.162 0 0  0.163 0 0  0.164 0 0  0.165 0 0  0.166 0 0  0.167 0 0  0.168 0 0  0.169 0 0  0.17 0 0  0.171 0 0  0.172 0 0  0.173 0 0  0.174 0 0  0.175 0 0  0.176 0 0  0.177 0 0  0.178 0 0  0.179 0 0  0.18 0 0  0.181 0 0  0.182 0 0  0.183 0 0  0.184 0 0  0.185 0 0  0.186 0 0  0.187 0 0  0.188 0 0  0.189 0 0  0.19 0 0  0.191 0 0  0.192 0 0  0.193 0 0  0.194 0 0  0.195 0 0  0.196 0 0  0.197 0 0  0.198 0 0  0.199 0 0  0.2 0 0  0.201 0 0  0.202 0 0  0.203 0 0  0.204 0 0  0.205 0 0  0.206 0 0  0.207 0 0  0.208 0 0  0.209 0 0  0.21 0 0  0.211 0 0  0.212 0 0  0.213 0 0  0.214 0 0  0.215 0 0  0.216 0 0  0.217 0 0  0.218 0 0  0.219 0 0  0.22 0 0  0.221 0 0  0.222 0 0  0.223 0 0  0.224 0 0  0.225 0 0  0.226 0 0  0.227 0 0  0.228 0 0  0.229 0 0  0.23 0 0  0.231 0 0  0.232 0 0  0.233 0 0  0.234 0 0  0.235 0 0  0.236 0 0  0.237 0 0  0.238 0 0  0.239 0 0  0.24 0 0  0.241 0 0  0.242 0 0  0.243 0 0  0.244 0 0  0.245 0 0  0.246 0 0  0.247 0 0  0.248 0 0  0.249 0 0  0.25 0 0  0.251 0 0  0.252 0 0  0.253 0 0  0.254 0 0  0.255 0 0  0.256 0 0  0.257 0 0  0.258 0 0  0.259 0 0  0.26 0 0  0.261 0 0  0.262 0 0  0.263 0 0  0.264 0 0  0.265 0 0  0.266 0 0  0.267 0 0  0.268 0 0  0.269 0 0  0.27 0 0  0.271 0 0  0.272 0 0  0.273 0 0  0.274 0 0  0.275 0 0  0.276 0 0  0.277 0 0  0.278 0 0  0.279 0 0  0.28 0 0  0.281 0 0  0.282 0 0  0.283 0 0  0.284 0 0  0.285 0 0  0.286 0 0  0.287 0 0  0.288 0 0  0.289 0 0  0.29 0 0  0.291 0 0  0.292 0 0  0.293 0 0  0.294 0 0  0.295 0 0  0.296 0 0  0.297 0 0  0.298 0 0  0.299 0 0  0.3 0 0  0.301 0 0  0.302 0 0  0.303 0 0  0.304 0 0  0.305 0 0  0.306 0 0  0.307 0 0  0.308 0 0  0.309 0 0  0.31 0 0  0.311 0 0  0.312 0 0  0.313 0 0  0.314 0 0  0.315 0 0  0.316 0 0  0.317 0 0  0.318 0 0  0.319 0 0  0.32 0 0  0.321 0 0  0.322 0 0  0.323 0 0  0.324 0 0  0.325 0 0  0.326 0 0  0.327 0 0  0.328 0 0  0.329 0 0  0.33 0 0  0.331 0 0  0.332 0 0  0.333 0 0  0.334 0 0  0.335 0 0  0.336 0 0  0.337 0 0  0.338 0 0  0.339 0 0  0.34 0 0  0.341 0 0  0.342 0 0  0.343 0 0  0.344 0 0  0.345 0 0  0.346 0 0  0.347 0 0  0.348 0 0  0.349 0 0  0.35 0 0  0.351 0 0  0.352 0 0  0.353 0 0  0.354 0 0  0.355 0 0  0.356 0 0  0.357 0 0  0.358 0 0  0.359 0 0  0.36 0 0  0.361 0 0  0.362 0 0  0.363 0 0  0.364 0 0  0.365 0 0  0.366 0 0  0.367 0 0  0.368 0 0  0.369 0 0  0.37 0 0  0.371 0 0  0.372 0 0  0.373 0 0  0.374 0 0  0.375 0 0  0.376 0 0  0.377 0 0  0.378 0 0  0.379 0 0  0.38 0 0  0.381 0 0  0.382 0 0  0.383 0 0  0.384 0 0  0.385 0 0  0.386 0 0  0.387 0 0  0.388 0 0  0.389 0 0  0.39 0 0  0.391 0 0  0.392 0 0  0.393 0 0  0.394 0 0  0.395 0 0  0.396 0 0  0.397 0 0  0.398 0 0  0.399 0 0  0.4 0 0  0.401 0 0  0.402 0 0  0.403 0 0  0.404 0 0  0.405 0 0  0.406 0 0  0.407 0 0  0.408 0 0  0.409 0 0  0.41 0 0  0.411 0 0  0.412 0 0  0.413 0 0  0.414 0 0  0.415 0 0  0.416 0 0  0.417 0 0  0.418 0 0  0.419 0 0  0.42 0 0  0.421 0 0  0.422 0 0  0.423 0 0  0.424 0 0  0.425 0 0  0.426 0 0  0.427 0 0  0.428 0 0  0.429 0 0  0.43 0 0  0.431 0 0  0.432 0 0  0.433 0 0  0.434 0 0  0.435 0 0  0.436 0 0  0.437 0 0  0.438 0 0  0.439 0 0  0.44 0 0  0.441 0 0  0.442 0 0  0.443 0 0  0.444 0 0  0.445 0 0  0.446 0 0  0.447 0 0  0.448 0 0  0.449 0 0  0.45 0 0  0.451 0 0  0.452 0 0  0.453 0 0  0.454 0 0  0.455 0 0  0.456 0 0  0.457 0 0  0.458 0 0  0.459 0 0  0.46 0 0  0.461 0 0  0.462 0 0  0.463 0 0  0.464 0 0  0.465 0 0  0.466 0 0  0.467 0 0  0.468 0 0  0.469 0 0  0.47 0 0  0.471 0 0  0.472 0 0  0.473 0 0  0.474 0 0  0.475 0 0  0.476 0 0  0.477 0 0  0.478 0 0  0.479 0 0  0.48 0 0  0.481 0 0  0.482 0 0  0.483 0 0  0.484 0 0  0.485 0 0  0.486 0 0  0.487 0 0  0.488 0 0  0.489 0 0  0.49 0 0  0.491 0 0  0.492 0 0  0.493 0 0  0.494 0 0  0.495 0 0  0.496 0 0  0.497 0 0  0.498 0 0  0.499 0 0  0.5 0 0  0.501 0 0  0.502 0 0  0.503 0 0  0.504 0 0  0.505 0 0  0.506 0 0  0.507 0 0  0.508 0 0  0.509 0 0  0.51 0 0  0.511 0 0  0.512 0 0  0.513 0 0  0.514 0 0  0.515 0 0  0.516 0 0  0.517 0 0  0.518 0 0  0.519 0 0  0.52 0 0  0.521 0 0  0.522 0 0  0.523 0 0  0.524 0 0  0.525 0 0  0.526 0 0  0.527 0 0  0.528 0 0  0.529 0 0  0.53 0 0  0.531 0 0  0.532 0 0  0.533 0 0  0.534 0 0  0.535 0 0  0.536 0 0  0.537 0 0  0.538 0 0  0.539 0 0  0.54 0 0  0.541 0 0  0.542 0 0  0.543 0 0  0.544 0 0  0.545 0 0  0.546 0 0  0.547 0 0  0.548 0 0  0.549 0 0  0.55 0 0  0.551 0 0  0.552 0 0  0.553 0 0  0.554 0 0  0.555 0 0  0.556 0 0  0.5570000000000001 0 0  0.5580000000000001 0 0  0.5590000000000001 0 0  0.5600000000000001 0 0  0.5610000000000001 0 0  0.5620000000000001 0 0  0.5629999999999999 0 0  0.5639999999999999 0 0  0.5649999999999999 0 0  0.5659999999999999 0 0  0.5669999999999999 0 0  0.5679999999999999 0 0  0.569 0 0  0.57 0 0  0.571 0 0  0.572 0 0  0.573 0 0  0.574 0 0  0.575 0 0  0.576 0 0  0.577 0 0  0.578 0 0  0.579 0 0  0.58 0 0  0.581 0 0  0.582 0 0  0.583 0 0  0.584 0 0  0.585 0 0  0.586 0 0  0.587 0 0  0.588 0 0  0.589 0 0  0.59 0 0  0.591 0 0  0.592 0 0  0.593 0 0  0.594 0 0  0.595 0 0  0.596 0 0  0.597 0 0  0.598 0 0  0.599 0 0  0.6 0 0  0.601 0 0  0.602 0 0  0.603 0 0  0.604 0 0  0.605 0 0  0.606 0 0  0.607 0 0  0.608 0 0  0.609 0 0  0.61 0 0  0.611 0 0  0.612 0 0  0.613 0 0  0.614 0 0  0.615 0 0  0.616 0 0  0.617 0 0  0.618 0 0  0.619 0 0  0.62 0 0  0.621 0 0  0.622 0 0  0.623 0 0  0.624 0 0  0.625 0 0  0.626 0 0  0.627 0 0  0.628 0 0  0.629 0 0  0.63 0 0  0.631 0 0  0.632 0 0  0.633 0 0  0.634 0 0  0.635 0 0  0.636 0 0  0.637 0 0  0.638 0 0  0.639 0 0  0.64 0 0  0.641 0 0  0.642 0 0  0.643 0 0  0.644 0 0  0.645 0 0  0.646 0 0  0.647 0 0  0.648 0 0  0.649 0 0  0.65 0 0  0.651 0 0  0.652 0 0  0.653 0 0  0.654 0 0  0.655 0 0  0.656 0 0  0.657 0 0  0.658 0 0  0.659 0 0  0.66 0 0  0.661 0 0  0.662 0 0  0.663 0 0  0.664 0 0  0.665 0 0  0.666 0 0  0.667 0 0  0.668 0 0  0.669 0 0  0.67 0 0  0.671 0 0  0.672 0 0  0.673 0 0  0.674 0 0  0.675 0 0  0.676 0 0  0.677 0 0  0.678 0 0  0.679 0 0  0.68 0 0  0.681 0 0  0.6820000000000001 0 0  0.6830000000000001 0 0  0.6840000000000001 0 0  0.6850000000000001 0 0  0.6860000000000001 0 0  0.6870000000000001 0 0  0.6879999999999999 0 0  0.6889999999999999 0 0  0.6899999999999999 0 0  0.6909999999999999 0 0  0.6919999999999999 0 0  0.6929999999999999 0 0  0.694 0 0  0.695 0 0  0.696 0 0  0.697 0 0  0.698 0 0  0.699 0 0  0.7 0 0  0.701 0 0  0.702 0 0  0.703 0 0  0.704 0 0  0.705 0 0  0.706 0 0  0.707 0 0  0.708 0 0  0.709 0 0  0.71 0 0  0.711 0 0  0.712 0 0  0.713 0 0  0.714 0 0  0.715 0 0  0.716 0 0  0.717 0 0  0.718 0 0  0.719 0 0  0.72 0 0  0.721 0 0  0.722 0 0  0.723 0 0  0.724 0 0  0.725 0 0  0.726 0 0  0.727 0 0  0.728 0 0  0.729 0 0  0.73 0 0  0.731 0 0  0.732 0 0  0.733 0 0  0.734 0 0  0.735 0 0  0.736 0 0  0.737 0 0  0.738 0 0  0.739 0 0  0.74 0 0  0.741 0 0  0.742 0 0  0.743 0 0  0.744 0 0  0.745 0 0  0.746 0 0  0.747 0 0  0.748 0 0  0.749 0 0  0.75 0 0  0.751 0 0  0.752 0 0  0.753 0 0  0.754 0 0  0.755 0 0  0.756 0 0  0.757 0 0  0.758 0 0  0.759 0 0  0.76 0 0  0.761 0 0  0.762 0 0  0.763 0 0  0.764 0 0  0.765 0 0  0.766 0 0  0.767 0 0  0.768 0 0  0.769 0 0  0.77 0 0  0.771 0 0  0.772 0 0  0.773 0 0  0.774 0 0  0.775 0 0  0.776 0 0  0.777 0 0  0.778 0 0  0.779 0 0  0.78 0 0  0.781 0 0  0.782 0 0  0.783 0 0  0.784 0 0  0.785 0 0  0.786 0 0  0.787 0 0  0.788 0 0  0.789 0 0  0.79 0 0  0.791 0 0  0.792 0 0  0.793 0 0  0.794 0 0  0.795 0 0  0.796 0 0  0.797 0 0  0.798 0 0  0.799 0 0  0.8 0 0  0.801 0 0  0.802 0 0  0.803 0 0  0.804 0 0  0.805 0 0  0.806 0 0  0.8070000000000001 0 0  0.8080000000000001 0 0  0.8090000000000001 0 0  0.8100000000000001 0 0  0.8110000000000001 0 0  0.8120000000000001 0 0  0.8129999999999999 0 0  0.8139999999999999 0 0  0.8149999999999999 0 0  0.8159999999999999 0 0  0.8169999999999999 0 0  0.8179999999999999 0 0  0.819 0 0  0.82 0 0  0.821 0 0  0.822 0 0  0.823 0 0  0.824 0 0  0.825 0 0  0.826 0 0  0.827 0 0  0.828 0 0  0.829 0 0  0.83 0 0  0.831 0 0  0.832 0 0  0.833 0 0  0.834 0 0  0.835 0 0  0.836 0 0  0.837 0 0  0.838 0 0  0.839 0 0  0.84 0 0  0.841 0 0  0
[...]
<PointData  Scalars="f_20-0"> 
<DataArray  type="Float64"  Name="f_20-0"  format="ascii">2.1148233280220641e+00  2.1152992158490207e+00  2.1167292574536525e+00  2.1191205740905317e+00  2.1224849904494740e+00  2.1268389673551540e+00  2.1322035051869865e+00  2.1386040157489536e+00  2.1460701598008751e+00  2.1546356470470500e+00  2.1643379950923807e+00  2.1752182437489052e+00  2.1873206211363936e+00  2.2006921582983154e+00  2.2153822495754465e+00  2.2314421567654548e+00  2.2489244561621051e+00  2.2678824289157453e+00  2.2883693967769685e+00  2.3104380071503288e+00  2.3341394734478533e+00  2.3595227789251658e+00  2.3866338544180774e+00  2.4155147425675794e+00  2.4462027631050769e+00  2.4787296954381040e+00  2.5131209960011813e+00  2.5493950684986655e+00  2.5875626051695253e+00  2.6276260164827696e+00  2.6695789652013926e+00  2.7134060185533109e+00  2.7590824293890330e+00  2.8065740538029629e+00  2.8558374089028944e+00  2.9068198704138677e+00  2.9594600057964890e+00  3.0136880347448542e+00  3.0694264054890068e+00  3.1265904724169253e+00  3.1850892582684418e+00  3.2448262826104806e+00  3.3057004375049881e+00  3.3676068912085655e+00  3.4304380013377558e+00  3.4940842201068016e+00  3.5584349758850613e+00  3.6233795173072001e+00  3.6888077083772060e+00  3.7546107653196064e+00  3.8206819282427138e+00  3.8869170629006247e+00  3.9532151899030707e+00  4.0194789405742561e+00  4.0856149402714514e+00  4.1515341213251711e+00  4.2171519688538215e+00  4.2823887035456423e+00  4.3471694061076871e+00  4.4114240884781664e+00  4.4750877171119079e+00  4.5381001937062875e+00  4.6004062986647716e+00  4.6619556024234621e+00  4.7227023495166378e+00  4.7826053199522827e+00  4.8416276721259459e+00  4.8997367711375199e+00  4.9569040060029330e+00  5.0131045988821805e+00  5.0683174090843295e+00  5.1225247342652542e+00  5.1757121109090356e+00  5.2278681158820950e+00  5.2789841705715848e+00  5.3290543488673237e+00  5.3780751900189889e+00  5.4260455171973225e+00  5.4729662624081037e+00  5.5188402982496729e+00  5.5636722768669431e+00  5.6074684763359111e+00  5.6502366546105760e+00  5.6919859110774844e+00  5.7327265556904434e+00  5.7724699855970458e+00  5.8112285691192795e+00  5.8490155369100290e+00  5.8858448800755472e+00  5.9217312550293322e+00  5.9566898948244393e+00  5.9907365266982175e+00  6.0238872955549576e+00  6.0561586931073217e+00  6.0875674923959204e+00  6.1181306874077412e+00  6.1478654375175363e+00  6.1767890164814396e+00  6.2049187657188858e+00  6.2322720516265235e+00  6.2588662266765303e+00  6.2847185940609256e+00  6.3098463756532404e+00  6.3342666830687193e+00  6.3579964916144727e+00  6.3810526169310142e+00  6.4034516941366855e+00  6.4252101592964177e+00  6.4463442330459504e+00  6.4668699062121053e+00  6.4868029272788661e+00  6.5061587915578913e+00  6.5249527319306289e+00  6.5431997110373255e+00  6.5609144147961045e+00  6.5781112471426990e+00  6.5948043258885747e+00  6.6110074796019038e+00  6.6267342454222451e+00  6.6419978677258520e+00  6.6568112975642579e+00  6.6711871928042061e+00  6.6851379189020186e+00  6.6986755502503792e+00  6.7118118720399611e+00  6.7245583825825523e+00  6.7369262960463328e+00  6.7489265455576586e+00  6.7605697866272205e+00  6.7718664008616418e+00  6.7828264999246990e+00  6.7934599297151754e+00  6.8037762747309625e+00  6.8137848625915822e+00  6.8234947686935490e+00  6.8329148209751676e+00  6.8420536047693714e+00  6.8509194677250411e+00  6.8595205247789641e+00  6.8678646631622913e+00  6.8759595474266568e+00  6.8838126244767235e+00  6.8914311285970085e+00  6.8988220864621512e+00  6.9059923221208397e+00  6.9129484619445574e+00  6.9196969395334147e+00  6.9262440005720025e+00  6.9325957076291216e+00  6.9387579448959533e+00  6.9447364228578721e+00  6.9505366828957564e+00  6.9561641018132452e+00  6.9616238962868024e+00  6.9669211272361249e+00  6.9720607041126126e+00  6.9770473891042837e+00  6.9818858012556708e+00  6.9865804205016833e+00  6.9911355916146922e+00  6.9955555280643873e+00  6.9998443157901349e+00  7.0040059168858999e+00  7.0080441731979004e+00  7.0119628098354081e+00  7.0157654385952313e+00  7.0194555613005942e+00  7.0230365730552569e+00  7.0265117654137681e+00  7.0298843294689703e+00  7.0331573588578422e+00  7.0363338526869059e+00  7.0394167183785008e+00  7.0424087744392425e+00  7.0453127531520634e+00  7.0481313031932622e+00  7.0508669921760188e+00  7.0535223091218890e+00  7.0560996668617539e+00  7.0586014043677752e+00  7.0610297890178790e+00  7.0633870187942849e+00  7.0656752244176912e+00  7.0678964714185621e+00  7.0700527621471077e+00  7.0721460377234662e+00  7.0741781799295929e+00  7.0761510130443526e+00  7.0780663056232802e+00  7.0799257722245192e+00  7.0817310750823212e+00  7.0834838257295516e+00  7.0851855865706046e+00  7.0868378724060914e+00  7.0884421519106491e+00  7.0899998490652170e+00  7.0915123445450208e+00  7.0929809770646148e+00  7.0944070446811498e+00  7.0957918060571341e+00  7.0971364816838740e+00  7.0984422550667130e+00  7.0997102738732680e+00  7.1009416510456971e+00  7.1021374658781733e+00  7.1032987650605071e+00  7.1044265636890431e+00  7.1055218462457530e+00  7.1065855675465714e+00  7.1076186536598343e+00  7.1086220027958174e+00  7.1095964861682530e+00  7.1105429488286482e+00  7.1114622104743290e+00  7.1123550662309620e+00  7.1132222874104025e+00  7.1140646222446025e+00  7.1148827965963894e+00  7.1156775146477740e+00  7.1164494595665628e+00  7.1171992941519244e+00  7.1179276614595794e+00  7.1186351854072960e+00  7.1193224713612642e+00  7.1199901067040088e+00  7.1206386613843922e+00  7.1212686884503125e+00  7.1218807245646119e+00  7.1224752905047719e+00  7.1230528916469007e+00  7.1236140184344814e+00  7.1241591468324428e+00  7.1246887387669533e+00  7.1252032425514233e+00  7.1257030932991903e+00  7.1261887133232324e+00  7.1266605125234426e+00  7.1271188887617418e+00  7.1275642282255127e+00  7.1279969057796864e+00  7.1284172853078509e+00  7.1288257200427445e+00  7.1292225528864606e+00  7.1296081167207177e+00  7.1299827347074780e+00  7.1303467205802580e+00  7.1307003789264014e+00  7.1310440054606392e+00  7.1313778872901636e+00  7.1317023031715392e+00  7.1320175237596928e+00  7.1323238118492105e+00  7.1326214226082199e+00  7.1329106038051044e+00  7.1331915960282135e+00  7.1334646328988791e+00  7.1337299412778794e+00  7.1339877414655897e+00  7.1342382473960217e+00  7.1344816668249473e+00  7.1347182015122730e+00  7.1349480473988693e+00  7.1351713947780082e+00  7.1353884284616145e+00  7.1355993279414580e+00  7.1358042675454740e+00  7.1360034165893103e+00  7.1361969395233693e+00  7.1363849960753241e+00  7.1365677413883963e+00  7.1367453261554399e+00  7.1369178967489963e+00  7.1370855953474495e+00  7.1372485600573734e+00  7.1374069250322254e+00  7.1375608205874865e+00  7.1377103733123466e+00  7.1378557061780565e+00  7.1379969386430417e+00  7.1381341867548969e+00  7.1382675632493147e+00  7.1383971776461017e+00  7.1385231363423154e+00  7.1386455427026592e+00  7.1387644971471733e+00  7.1388800972363402e+00  7.1389924377536795e+00  7.1391016107858860e+00  7.1392077058006054e+00  7.1393108097219296e+00  7.1394110070036341e+00  7.1395083797003016e+00  7.1396030075363228e+00  7.1396949679728809e+00  7.1397843362729621e+00  7.1398711855644823e+00  7.1399555869015323e+00  7.1400376093238469e+00  7.1401173199145509e+00  7.1401947838561801e+00  7.1402700644850992e+00  7.1403432233443223e+00  7.1404143202347878e+00  7.1404834132651516e+00  7.1405505589001219e+00  7.1406158120073968e+00  7.1406792259032397e+00  7.1407408523967222e+00  7.1408007418326962e+00  7.1408589431335061e+00  7.1409155038395156e+00  7.1409704701484369e+00  7.1410238869535521e+00  7.1410757978807977e+00  7.1411262453248039e+00  7.1411752704838891e+00  7.1412229133940412e+00  7.1412692129619195e+00  7.1413142069969071e+00  7.1413579322422533e+00  7.1414004244053091e+00  7.1414417181868943e+00  7.1414818473098132e+00  7.1415208445465952e+00  7.1415587417463691e+00  7.1415955698610398e+00  7.1416313589706588e+00  7.1416661383081053e+00  7.1416999362830458e+00  7.1417327805052064e+00  7.1417646978069973e+00  7.1417957142654656e+00  7.1418258552236384e+00  7.1418551453112622e+00  7.1418836084649353e+00  7.1419112679476706e+00  7.1419381463679219e+00  7.1419642656980233e+00  7.1419896472921609e+00  7.1420143119037895e+00  7.1420382797025646e+00  7.1420615702908092e+00  7.1420842027194960e+00  7.1421061955037857e+00  7.1421275666381083e+00  7.1421483336108453e+00  7.1421685134185653e+00  7.1421881225798725e+00  7.1422071771488636e+00  7.1422256927281973e+00  7.1422436844817918e+00  7.1422611671471739e+00  7.1422781550474674e+00  7.1422946621030468e+00  7.1423107018428693e+00  7.1423262874154654e+00  7.1423414315996441e+00  7.1423561468148771e+00  7.1423704451314025e+00  7.1423843382800323e+00  7.1423978376616892e+00  7.1424109543566709e+00  7.1424236991336691e+00  7.1424360824584978e+00  7.1424481145026197e+00  7.1424598051513959e+00  7.1424711640121288e+00  7.1424822004218580e+00  7.1424929234549577e+00  7.1425033419304995e+00  7.1425134644194186e+00  7.1425232992514811e+00  7.1425328545220550e+00  7.1425421380986682e+00  7.1425511576274285e+00  7.1425599205392123e+00  7.1425684340557138e+00  7.1425767051953040e+00  7.1425847407787479e+00  7.1425925474347363e+00  7.1426001316052705e+00  7.1426074995509063e+00  7.1426146573558391e+00  7.1426216109328484e+00  7.1426283660281031e+00  7.1426349282258395e+00  7.1426413029528968e+00  7.1426474954831294e+00  7.1426535109416998e+00  7.1426593543092469e+00  7.1426650304259338e+00  7.1426705439953935e+00  7.1426758995885491e+00  7.1426811016473382e+00  7.1426861544883256e+00  7.1426910623062243e+00  7.1426958291773008e+00  7.1427004590627021e+00  7.1427049558116824e+00  7.1427093231647367e+00  7.1427135647566455e+00  7.1427176841194457e+00  7.1427216846853057e+00  7.1427255697893113e+00  7.1427293426722063e+00  7.1427330064830246e+00  7.1427365642816545e+00  7.1427400190413435e+00  7.1427433736511148e+00  7.1427466309181398e+00  7.1427497935700091e+00  7.1427528642569751e+00  7.1427558455541069e+00  7.1427587399633978e+00  7.1427615499158037e+00  7.1427642777732263e+00  7.1427669258304496e+00  7.1427694963170056e+00  7.1427719913990018e+00  7.1427744131808808e+00  7.1427767637071451e+00  7.1427790449640298e+00  7.1427812588811124e+00  7.1427834073328995e+00  7.1427854921403435e+00  7.1427875150723441e+00  7.1427894778471748e+00  7.1427913821338942e+00  7.1427932295537016e+00  7.1427950216812564e+00  7.1427967600459663e+00  7.1427984461332263e+00  7.1428000813856238e+00  7.1428016672041226e+00  7.1428032049491801e+00  7.1428046959418747e+00  7.1428061414649537e+00  7.1428075427638857e+00  7.1428089010478653e+00  7.1428102174907817e+00  7.1428114932321796e+00  7.1428127293781598e+00  7.1428139270022806e+00  7.1428150871464151e+00  7.1428162108215858e+00  7.1428172990087706e+00  7.1428183526596891e+00  7.1428193726975602e+00  7.1428203600178293e+00  7.1428213154888871e+00  7.1428222399527463e+00  7.1428231342257140e+00  7.1428239990990221e+00  7.1428248353394590e+00  7.1428256436899584e+00  7.1428264248701874e+00  7.1428271795770959e+00  7.1428279084854598e+00  7.1428286122483957e+00  7.1428292914978737e+00  7.1428299468451879e+00  7.1428305788814219e+00  7.1428311881779116e+00  7.1428317752866555e+00  7.1428323407407488e+00  7.1428328850547684e+00  7.1428334087251661e+00  7.1428339122306221e+00  7.1428343960324172e+00  7.1428348605747614e+00  7.1428353062851171e+00  7.1428357335745103e+00  7.1428361428378331e+00  7.1428365344541263e+00  7.1428369087868484e+00  7.1428372661841379e+00  7.1428376069790573e+00  7.1428379314898365e+00  7.1428382400200787e+00  7.1428385328589963e+00  7.1428388102815976e+00  7.1428390725488820e+00  7.1428393199080151e+00  7.1428395525925037e+00  7.1428397708223592e+00  7.1428399748042413e+00  7.1428401647315978e+00  7.1428403407848000e+00  7.1428405031312625e+00  7.1428406519255550e+00  7.1428407873095061e+00  7.1428409094123042e+00  7.1428410183505697e+00  7.1428411142284469e+00  7.1428411971376615e+00  7.1428412671575927e+00  7.1428413243553157e+00  7.1428413687856516e+00  7.1428414004912000e+00  7.1428414195023704e+00  7.1428414258374007e+00  7.1428414195023677e+00  7.1428414004911991e+00  7.1428413687856498e+00  7.1428413243553130e+00  7.1428412671575909e+00  7.1428411971376597e+00  7.1428411142284425e+00  7.1428410183505679e+00  7.1428409094123033e+00  7.1428407873095061e+00  7.1428406519255523e+00  7.1428405031312572e+00  7.1428403407847956e+00  7.1428401647315969e+00  7.1428399748042395e+00  7.1428397708223583e+00  7.1428395525925037e+00  7.1428393199080116e+00  7.1428390725488766e+00  7.1428388102815923e+00  7.1428385328589918e+00  7.1428382400200743e+00  7.1428379314898311e+00  7.1428376069790547e+00  7.1428372661841344e+00  7.1428369087868457e+00  7.1428365344541218e+00  7.1428361428378286e+00  7.1428357335745059e+00  7.1428353062851144e+00  7.1428348605747605e+00  7.1428343960324199e+00  7.1428339122306257e+00  7.1428334087251670e+00  7.1428328850547720e+00  7.1428323407407506e+00  7.1428317752866572e+00  7.1428311881779116e+00  7.1428305788814228e+00  7.1428299468451870e+00  7.1428292914978737e+00  7.1428286122483966e+00  7.1428279084854598e+00  7.1428271795770950e+00  7.1428264248701865e+00  7.1428256436899575e+00  7.1428248353394554e+00  7.1428239990990212e+00  7.1428231342257158e+00  7.1428222399527499e+00  7.1428213154888907e+00  7.1428203600178310e+00  7.1428193726975584e+00  7.1428183526596873e+00  7.1428172990087688e+00  7.1428162108215849e+00  7.1428150871464160e+00  7.1428139270022815e+00  7.1428127293781580e+00  7.1428114932321760e+00  7.1428102174907790e+00  7.1428089010478599e+00  7.1428075427638831e+00  7.1428061414649502e+00  7.1428046959418721e+00  7.1428032049491801e+00  7.1428016672041199e+00  7.1428000813856212e+00  7.1427984461332228e+00  7.1427967600459636e+00  7.1427950216812528e+00  7.1427932295536971e+00  7.1427913821338924e+00  7.1427894778471757e+00  7.1427875150723459e+00  7.1427854921403471e+00  7.1427834073329031e+00  7.1427812588811168e+00  7.1427790449640316e+00  7.1427767637071469e+00  7.1427744131808817e+00  7.1427719913990035e+00  7.1427694963170092e+00  7.1427669258304523e+00  7.1427642777732281e+00  7.1427615499158037e+00  7.1427587399633987e+00  7.1427558455541078e+00  7.1427528642569751e+00  7.1427497935700091e+00  7.1427466309181371e+00  7.1427433736511130e+00  7.1427400190413408e+00  7.1427365642816518e+00  7.1427330064830228e+00  7.1427293426722054e+00  7.1427255697893122e+00  7.1427216846853074e+00  7.1427176841194511e+00  7.1427135647566509e+00  7.1427093231647421e+00  7.1427049558116869e+00  7.1427004590627066e+00  7.1426958291773053e+00  7.1426910623062287e+00  7.1426861544883300e+00  7.1426811016473390e+00  7.1426758995885473e+00  7.1426705439953899e+00  7.1426650304259303e+00  7.1426593543092425e+00  7.1426535109416962e+00  7.1426474954831258e+00  7.1426413029528941e+00  7.1426349282258386e+00  7.1426283660281022e+00  7.1426216109328484e+00  7.1426146573558400e+00  7.1426074995509090e+00  7.1426001316052723e+00  7.1425925474347380e+00  7.1425847407787506e+00  7.1425767051953057e+00  7.1425684340557130e+00  7.1425599205392123e+00  7.1425511576274276e+00  7.1425421380986664e+00  7.1425328545220514e+00  7.1425232992514776e+00  7.1425134644194124e+00  7.1425033419304942e+00  7.1424929234549559e+00  7.1424822004218571e+00  7.1424711640121288e+00  7.1424598051513959e+00  7.1424481145026197e+00  7.1424360824584987e+00  7.1424236991336709e+00  7.1424109543566736e+00  7.1423978376616901e+00  7.1423843382800349e+00  7.1423704451314070e+00  7.1423561468148806e+00  7.1423414315996459e+00  7.1423262874154672e+00  7.1423107018428711e+00  7.1422946621030512e+00  7.1422781550474701e+00  7.1422611671471739e+00  7.1422436844817936e+00  7.1422256927281982e+00  7.1422071771488653e+00  7.1421881225798742e+00  7.1421685134185644e+00  7.1421483336108436e+00  7.1421275666381074e+00  7.1421061955037830e+00  7.1420842027194933e+00  7.1420615702908057e+00  7.1420382797025592e+00  7.1420143119037869e+00  7.1419896472921618e+00  7.1419642656980242e+00  7.1419381463679192e+00  7.1419112679476688e+00  7.1418836084649335e+00  7.1418551453112604e+00  7.1418258552236349e+00  7.1417957142654602e+00  7.1417646978069946e+00  7.1417327805052055e+00  7.1416999362830413e+00  7.1416661383081008e+00  7.1416313589706553e+00  7.1415955698610389e+00  7.1415587417463700e+00  7.1415208445465961e+00  7.1414818473098105e+00  7.1414417181868908e+00  7.1414004244053109e+00  7.1413579322422560e+00  7.1413142069969089e+00  7.1412692129619195e+00  7.1412229133940412e+00  7.1411752704838882e+00  7.1411262453248003e+00  7.1410757978807968e+00  7.1410238869535538e+00  7.1409704701484422e+00  7.1409155038395182e+00  7.1408589431335070e+00  7.1408007418326953e+00  7.1407408523967222e+00  7.1406792259032361e+00  7.1406158120073933e+00  7.1405505589001184e+00  7.1404834132651498e+00  7.1404143202347869e+00  7.1403432233443240e+00  7.1402700644851018e+00  7.1401947838561819e+00  7.1401173199145518e+00  7.1400376093238496e+00  7.1399555869015323e+00  7.1398711855644832e+00  7.1397843362729621e+00  7.1396949679728774e+00  7.1396030075363219e+00  7.1395083797002989e+00  7.1394110070036305e+00  7.1393108097219242e+00  7.1392077058006054e+00  7.1391016107858842e+00  7.1389924377536769e+00  7.1388800972363393e+00  7.1387644971471733e+00  7.1386455427026601e+00  7.1385231363423172e+00  7.1383971776461026e+00  7.1382675632493138e+00  7.1381341867548960e+00  7.1379969386430382e+00  7.1378557061780539e+00  7.1377103733123448e+00  7.1375608205874848e+00  7.1374069250322236e+00  7.1372485600573690e+00  7.1370855953474486e+00  7.1369178967489963e+00  7.1367453261554399e+00  7.1365677413883963e+00  7.1363849960753205e+00  7.1361969395233666e+00  7.1360034165893085e+00  7.1358042675454678e+00  7.1355993279414580e+00  7.1353884284616118e+00  7.1351713947780038e+00  7.1349480473988658e+00  7.1347182015122721e+00  7.1344816668249456e+00  7.1342382473960182e+00  7.1339877414655852e+00  7.1337299412778767e+00  7.1334646328988764e+00  7.1331915960282117e+00  7.1329106038050991e+00  7.1326214226082190e+00  7.1323238118492078e+00  7.1320175237596946e+00  7.1317023031715392e+00  7.1313778872901636e+00  7.1310440054606392e+00  7.1307003789264032e+00  7.1303467205802598e+00  7.1299827347074780e+00  7.1296081167207177e+00  7.1292225528864606e+00  7.1288257200427454e+00  7.1284172853078518e+00  7.1279969057796873e+00  7.1275642282255127e+00  7.1271188887617409e+00  7.1266605125234435e+00  7.1261887133232342e+00  7.1257030932991929e+00  7.1252032425514296e+00  7.1246887387669577e+00  7.1241591468324463e+00  7.1236140184344814e+00  7.1230528916468980e+00  7.1224752905047701e+00  7.1218807245646074e+00  7.1212686884503107e+00  7.1206386613843922e+00  7.1199901067040097e+00  7.1193224713612642e+00  7.1186351854072969e+00  7.1179276614595803e+00  7.1171992941519262e+00  7.1164494595665646e+00  7.1156775146477758e+00  7.1148827965963903e+00  7.1140646222446042e+00  7.1132222874104043e+00  7.1123550662309647e+00  7.1114622104743317e+00  7.1105429488286509e+00  7.1095964861682530e+00  7.1086220027958227e+00  7.1076186536598378e+00  7.1065855675465777e+00  7.1055218462457592e+00  7.1044265636890449e+00  7.1032987650605106e+00  7.1021374658781768e+00  7.1009416510457033e+00  7.0997102738732742e+00  7.0984422550667210e+00  7.0971364816838802e+00  7.0957918060571377e+00  7.0944070446811498e+00  7.0929809770646131e+00  7.0915123445450181e+00  7.0899998490652116e+00  7.0884421519106438e+00  7.0868378724060852e+00  7.0851855865706028e+00  7.0834838257295498e+00  7.0817310750823230e+00  7.0799257722245192e+00  7.0780663056232775e+00  7.0761510130443499e+00  7.0741781799295937e+00  7.0721460377234662e+00  7.0700527621471077e+00  7.0678964714185630e+00  7.0656752244176930e+00  7.0633870187942840e+00  7.0610297890178781e+00  7.0586014043677752e+00  7.0560996668617504e+00  7.0535223091218855e+00  7.0508669921760143e+00  7.0481313031932560e+00  7.0453127531520625e+00  7.0424087744392398e+00  7.0394167183784999e+00  7.0363338526869