<?xml version="1.0"?>
<VTKFile type="UnstructuredGrid"  version="0.1"  >
<UnstructuredGrid>
<Piece  NumberOfPoints="1001" NumberOfCells="1000">
<Points>
<DataArray  type="Float64"  NumberOfComponents="3"  format="ascii">0 0 0  0.001 0 0  0.002 0 0  0.003 0 0  0.004 0 0  0.005 0 0  0.006 0 0  0.007 0 0  0.008 0 0  0.008999999999999999 0 0  0.01 0 0  0.011 0 0  0.012 0 0  0.013 0 0  0.014 0 0  0.015 0 0  0.016 0 0  0.017 0 0  0.018 0 0  0.019 0 0  0.02 0 0  0.021 0 0  0.022 0 0  0.023 0 0  0.024 0 0  0.025 0 0  0.026 0 0  0.027 0 0  0.028 0 0  0.029 0 0  0.03 0 0  0.031 0 0  0.032 0 0  0.033 0 0  0.034 0 0  0.035 0 0  0.036 0 0  0.037 0 0  0.038 0 0  0.039 0 0  0.04 0 0  0.041 0 0  0.042 0 0  0.043 0 0  0.044 0 0  0.045 0 0  0.046 0 0  0.047 0 0  0.048 0 0  0.049 0 0  0.05 0 0  0.051 0 0  0.052 0 0  0.053 0 0  0.054 0 0  0.055 0 0  0.056 0 0  0.057 0 0  0.058 0 0  0.059 0 0  0.06 0 0  0.061 0 0  0.062 0 0  0.063 0 0  0.064 0 0  0.065 0 0  0.066 0 0  0.067 0 0  0.068 0 0  0.06900000000000001 0 0  0.07000000000000001 0 0  0.07099999999999999 0 0  0.07199999999999999 0 0  0.073 0 0  0.074 0 0  0.075 0 0  0.076 0 0  0.077 0 0  0.078 0 0  0.079 0 0  0.08 0 0  0.081 0 0  0.082 0 0  0.083 0 0  0.08400000000000001 0 0  0.08500000000000001 0 0  0.08599999999999999 0 0  0.08699999999999999 0 0  0.08799999999999999 0 0  0.089 0 0  0.09 0 0  0.091 0 0  0.092 0 0  0.093 0 0  0.094 0 0  0.095 0 0  0.096 0 0  0.097 0 0  0.098 0 0  0.099 0 0  0.1 0 0  0.101 0 0  0.102 0 0  0.103 0 0  0.104 0 0  0.105 0 0  0.106 0 0  0.107 0 0  0.108 0 0  0.109 0 0  0.11 0 0  0.111 0 0  0.112 0 0  0.113 0 0  0.114 0 0  0.115 0 0  0.116 0 0  0.117 0 0  0.118 0 0  0.119 0 0  0.12 0 0  0.121 0 0  0.122 0 0  0.123 0 0  0.124 0 0  0.125 0 0  0.126 0 0  0.127 0 0  0.128 0 0  0.129 0 0  0.13 0 0  0.131 0 0  0.132 0 0  0.133 0 0  0.134 0 0  0.135 0 0  0.136 0 0  0.137 0 0  0.138 0 0  0.139 0 0  0.14 0 0  0.141 0 0  0.142 0 0  0.143 0 0  0.144 0 0  0.145 0 0  0.146 0 0  0.147 0 0  0.148 0 0  0.149 0 0  0.15 0 0  0.151 0 0  0.152 0 0  0.153 0 0  0.154 0 0  0.155 0 0  0.156 0 0  0.157 0 0  0.158 0 0  0.159 0 0  0.16 0 0  0.161 0 0  0.162 0 0  0.163 0 0  0.164 0 0  0.165 0 0  0.166 0 0  0.167 0 0  0.168 0 0  0.169 0 0  0.17 0 0  0.171 0 0  0.172 0 0  0.173 0 0  0.174 0 0  0.175 0 0  0.176 0 0  0.177 0 0  0.178 0 0  0.179 0 0  0.18 0 0  0.181 0 0  0.182 0 0  0.183 0 0  0.184 0 0  0.185 0 0  0.186 0 0  0.187 0 0  0.188 0 0  0.189 0 0  0.19 0 0  0.191 0 0  0.192 0 0  0.193 0 0  0.194 0 0  0.195 0 0  0.196 0 0  0.197 0 0  0.198 0 0  0.199 0 0  0.2 0 0  0.201 0 0  0.202 0 0  0.203 0 0  0.204 0 0  0.205 0 0  0.206 0 0  0.207 0 0  0.208 0 0  0.209 0 0  0.21 0 0  0.211 0 0  0.212 0 0  0.213 0 0  0.214 0 0  0.215 0 0  0.216 0 0  0.217 0 0  0.218 0 0  0.219 0 0  0.22 0 0  0.221 0 0  0.222 0 0  0.223 0 0  0.224 0 0  0.225 0 0  0.226 0 0  0.227 0 0  0.228 0 0  0.229 0 0  0.23 0 0  0.231 0 0  0.232 0 0  0.233 0 0  0.234 0 0  0.235 0 0  0.236 0 0  0.237 0 0  0.238 0 0  0.239 0 0  0.24 0 0  0.241 0 0  0.242 0 0  0.243 0 0  0.244 0 0  0.245 0 0  0.246 0 0  0.247 0 0  0.248 0 0  0.249 0 0  0.25 0 0  0.251 0 0  0.252 0 0  0.253 0 0  0.254 0 0  0.255 0 0  0.256 0 0  0.257 0 0  0.258 0 0  0.259 0 0  0.26 0 0  0.261 0 0  0.262 0 0  0.263 0 0  0.264 0 0  0.265 0 0  0.266 0 0  0.267 0 0  0.268 0 0  0.269 0 0  0.27 0 0  0.271 0 0  0.272 0 0  0.273 0 0  0.274 0 0  0.275 0 0  0.276 0 0  0.277 0 0  0.278 0 0  0.279 0 0  0.28 0 0  0.281 0 0  0.282 0 0  0.283 0 0  0.284 0 0  0.285 0 0  0.286 0 0  0.287 0 0  0.288 0 0  0.289 0 0  0.29 0 0  0.291 0 0  0.292 0 0  0.293 0 0  0.294 0 0  0.295 0 0  0.296 0 0  0.297 0 0  0.298 0 0  0.299 0 0  0.3 0 0  0.301 0 0  0.302 0 0  0.303 0 0  0.304 0 0  0.305 0 0  0.306 0 0  0.307 0 0  0.308 0 0  0.309 0 0  0.31 0 0  0.311 0 0  0.312 0 0  0.313 0 0  0.314 0 0  0.315 0 0  0.316 0 0  0.317 0 0  0.318 0 0  0.319 0 0  0.32 0 0  0.321 0 0  0.322 0 0  0.323 0 0  0.324 0 0  0.325 0 0  0.326 0 0  0.327 0 0  0.328 0 0  0.329 0 0  0.33 0 0  0.331 0 0  0.332 0 0  0.333 0 0  0.334 0 0  0.335 0 0  0.336 0 0  0.337 0 0  0.338 0 0  0.339 0 0  0.34 0 0  0.341 0 0  0.342 0 0  0.343 0 0  0.344 0 0  0.345 0 0  0.346 0 0  0.347 0 0  0.348 0 0  0.349 0 0  0.35 0 0  0.351 0 0  0.352 0 0  0.353 0 0  0.354 0 0  0.355 0 0  0.356 0 0  0.357 0 0  0.358 0 0  0.359 0 0  0.36 0 0  0.361 0 0  0.362 0 0  0.363 0 0  0.364 0 0  0.365 0 0  0.366 0 0  0.367 0 0  0.368 0 0  0.369 0 0  0.37 0 0  0.371 0 0  0.372 0 0  0.373 0 0  0.374 0 0  0.375 0 0  0.376 0 0  0.377 0 0  0.378 0 0  0.379 0 0  0.38 0 0  0.381 0 0  0.382 0 0  0.383 0 0  0.384 0 0  0.385 0 0  0.386 0 0  0.387 0 0  0.388 0 0  0.389 0 0  0.39 0 0  0.391 0 0  0.392 0 0  0.393 0 0  0.394 0 0  0.395 0 0  0.396 0 0  0.397 0 0  0.398 0 0  0.399 0 0  0.4 0 0  0.401 0 0  0.402 0 0  0.403 0 0  0.404 0 0  0.405 0 0  0.406 0 0  0.407 0 0  0.408 0 0  0.409 0 0  0.41 0 0  0.411 0 0  0.412 0 0  0.413 0 0  0.414 0 0  0.415 0 0  0.416 0 0  0.417 0 0  0.418 0 0  0.419 0 0  0.42 0 0  0.421 0 0  0.422 0 0  0.423 0 0  0.424 0 0  0.425 0 0  0.426 0 0  0.427 0 0  0.428 0 0  0.429 0 0  0.43 0 0  0.431 0 0  0.432 0 0  0.433 0 0  0.434 0 0  0.435 0 0  0.436 0 0  0.437 0 0  0.438 0 0  0.439 0 0  0.44 0 0  0.441 0 0  0.442 0 0  0.443 0 0  0.444 0 0  0.445 0 0  0.446 0 0  0.447 0 0  0.448 0 0  0.449 0 0  0.45 0 0  0.451 0 0  0.452 0 0  0.453 0 0  0.454 0 0  0.455 0 0  0.456 0 0  0.457 0 0  0.458 0 0  0.459 0 0  0.46 0 0  0.461 0 0  0.462 0 0  0.463 0 0  0.464 0 0  0.465 0 0  0.466 0 0  0.467 0 0  0.468 0 0  0.469 0 0  0.47 0 0  0.471 0 0  0.472 0 0  0.473 0 0  0.474 0 0  0.475 0 0  0.476 0 0  0.477 0 0  0.478 0 0  0.479 0 0  0.48 0 0  0.481 0 0  0.482 0 0  0.483 0 0  0.484 0 0  0.485 0 0  0.486 0 0  0.487 0 0  0.488 0 0  0.489 0 0  0.49 0 0  0.491 0 0  0.492 0 0  0.493 0 0  0.494 0 0  0.495 0 0  0.496 0 0  0.497 0 0  0.498 0 0  0.499 0 0  0.5 0 0  0.501 0 0  0.502 0 0  0.503 0 0  0.504 0 0  0.505 0 0  0.506 0 0  0.507 0 0  0.508 0 0  0.509 0 0  0.51 0 0  0.511 0 0  0.512 0 0  0.513 0 0  0.514 0 0  0.515 0 0  0.516 0 0  0.517 0 0  0.518 0 0  0.519 0 0  0.52 0 0  0.521 0 0  0.522 0 0  0.523 0 0  0.524 0 0  0.525 0 0  0.526 0 0  0.527 0 0  0.528 0 0  0.529 0 0  0.53 0 0  0.531 0 0  0.532 0 0  0.533 0 0  0.534 0 0  0.535 0 0  0.536 0 0  0.537 0 0  0.538 0 0  0.539 0 0  0.54 0 0  0.541 0 0  0.542 0 0  0.543 0 0  0.544 0 0  0.545 0 0  0.546 0 0  0.547 0 0  0.548 0 0  0.549 0 0  0.55 0 0  0.551 0 0  0.552 0 0  0.553 0 0  0.554 0 0  0.555 0 0  0.556 0 0  0.5570000000000001 0 0  0.5580000000000001 0 0  0.5590000000000001 0 0  0.5600000000000001 0 0  0.5610000000000001 0 0  0.5620000000000001 0 0  0.5629999999999999 0 0  0.5639999999999999 0 0  0.5649999999999999 0 0  0.5659999999999999 0 0  0.5669999999999999 0 0  0.5679999999999999 0 0  0.569 0 0  0.57 0 0  0.571 0 0  0.572 0 0  0.573 0 0  0.574 0 0  0.575 0 0  0.576 0 0  0.577 0 0  0.578 0 0  0.579 0 0  0.58 0 0  0.581 0 0  0.582 0 0  0.583 0 0  0.584 0 0  0.585 0 0  0.586 0 0  0.587 0 0  0.588 0 0  0.589 0 0  0.59 0 0  0.591 0 0  0.592 0 0  0.593 0 0  0.594 0 0  0.595 0 0  0.596 0 0  0.597 0 0  0.598 0 0  0.599 0 0  0.6 0 0  0.601 0 0  0.602 0 0  0.603 0 0  0.604 0 0  0.605 0 0  0.606 0 0  0.607 0 0  0.608 0 0  0.609 0 0  0.61 0 0  0.611 0 0  0.612 0 0  0.613 0 0  0.614 0 0  0.615 0 0  0.616 0 0  0.617 0 0  0.618 0 0  0.619 0 0  0.62 0 0  0.621 0 0  0.622 0 0  0.623 0 0  0.624 0 0  0.625 0 0  0.626 0 0  0.627 0 0  0.628 0 0  0.629 0 0  0.63 0 0  0.631 0 0  0.632 0 0  0.633 0 0  0.634 0 0  0.635 0 0  0.636 0 0  0.637 0 0  0.638 0 0  0.639 0 0  0.64 0 0  0.641 0 0  0.642 0 0  0.643 0 0  0.644 0 0  0.645 0 0  0.646 0 0  0.647 0 0  0.648 0 0  0.649 0 0  0.65 0 0  0.651 0 0  0.652 0 0  0.653 0 0  0.654 0 0  0.655 0 0  0.656 0 0  0.657 0 0  0.658 0 0  0.659 0 0  0.66 0 0  0.661 0 0  0.662 0 0  0.663 0 0  0.664 0 0  0.665 0 0  0.666 0 0  0.667 0 0  0.668 0 0  0.669 0 0  0.67 0 0  0.671 0 0  0.672 0 0  0.673 0 0  0.674 0 0  0.675 0 0  0.676 0 0  0.677 0 0  0.678 0 0  0.679 0 0  0.68 0 0  0.681 0 0  0.6820000000000001 0 0  0.6830000000000001 0 0  0.6840000000000001 0 0  0.6850000000000001 0 0  0.6860000000000001 0 0  0.6870000000000001 0 0  0.6879999999999999 0 0  0.6889999999999999 0 0  0.6899999999999999 0 0  0.6909999999999999 0 0  0.6919999999999999 0 0  0.6929999999999999 0 0  0.694 0 0  0.695 0 0  0.696 0 0  0.697 0 0  0.698 0 0  0.699 0 0  0.7 0 0  0.701 0 0  0.702 0 0  0.703 0 0  0.704 0 0  0.705 0 0  0.706 0 0  0.707 0 0  0.708 0 0  0.709 0 0  0.71 0 0  0.711 0 0  0.712 0 0  0.713 0 0  0.714 0 0  0.715 0 0  0.716 0 0  0.717 0 0  0.718 0 0  0.719 0 0  0.72 0 0  0.721 0 0  0.722 0 0  0.723 0 0  0.724 0 0  0.725 0 0  0.726 0 0  0.727 0 0  0.728 0 0  0.729 0 0  0.73 0 0  0.731 0 0  0.732 0 0  0.733 0 0  0.734 0 0  0.735 0 0  0.736 0 0  0.737 0 0  0.738 0 0  0.739 0 0  0.74 0 0  0.741 0 0  0.742 0 0  0.743 0 0  0.744 0 0  0.745 0 0  0.746 0 0  0.747 0 0  0.748 0 0  0.749 0 0  0.75 0 0  0.751 0 0  0.752 0 0  0.753 0 0  0.754 0 0  0.755 0 0  0.756 0 0  0.757 0 0  0.758 0 0  0.759 0 0  0.76 0 0  0.761 0 0  0.762 0 0  0.763 0 0  0.764 0 0  0.765 0 0  0.766 0 0  0.767 0 0  0.768 0 0  0.769 0 0  0.77 0 0  0.771 0 0  0.772 0 0  0.773 0 0  0.774 0 0  0.775 0 0  0.776 0 0  0.777 0 0  0.778 0 0  0.779 0 0  0.78 0 0  0.781 0 0  0.782 0 0  0.783 0 0  0.784 0 0  0.785 0 0  0.786 0 0  0.787 0 0  0.788 0 0  0.789 0 0  0.79 0 0  0.791 0 0  0.792 0 0  0.793 0 0  0.794 0 0  0.795 0 0  0.796 0 0  0.797 0 0  0.798 0 0  0.799 0 0  0.8 0 0  0.801 0 0  0.802 0 0  0.803 0 0  0.804 0 0  0.805 0 0  0.806 0 0  0.8070000000000001 0 0  0.8080000000000001 0 0  0.8090000000000001 0 0  0.8100000000000001 0 0  0.8110000000000001 0 0  0.8120000000000001 0 0  0.8129999999999999 0 0  0.8139999999999999 0 0  0.8149999999999999 0 0  0.8159999999999999 0 0  0.8169999999999999 0 0  0.8179999999999999 0 0  0.819 0 0  0.82 0 0  0.821 0 0  0.822 0 0  0.823 0 0  0.824 0 0  0.825 0 0  0.826 0 0  0.827 0 0  0.828 0 0  0.829 0 0  0.83 0 0  0.831 0 0  0.832 0 0  0.833 0 0  0.834 0 0  0.835 0 0  0.836 0 0  0.837 0 0  0.838 0 0  0.839 0 0  0.84 0 0  0.841 0 0  0
[...]
<PointData  Scalars="f_20-0"> 
<DataArray  type="Float64"  Name="f_20-0"  format="ascii">2.0000000000000004e+00  2.0000000000000000e+00  2.0000000000000004e+00  2.0000000000000000e+00  2.0000000000000000e+00  2.0000000000000009e+00  2.0000000000000013e+00  2.0000000000000022e+00  2.0000000000000018e+00  2.0000000000000040e+00  2.0000000000000075e+00  2.0000000000000111e+00  2.0000000000000169e+00  2.0000000000000240e+00  2.0000000000000333e+00  2.0000000000000440e+00  2.0000000000000555e+00  2.0000000000000684e+00  2.0000000000000853e+00  2.0000000000001052e+00  2.0000000000001283e+00  2.0000000000001554e+00  2.0000000000001887e+00  2.0000000000002274e+00  2.0000000000002744e+00  2.0000000000003304e+00  2.0000000000003966e+00  2.0000000000004747e+00  2.0000000000005689e+00  2.0000000000006799e+00  2.0000000000008114e+00  2.0000000000009681e+00  2.0000000000011551e+00  2.0000000000013776e+00  2.0000000000016414e+00  2.0000000000019558e+00  2.0000000000023288e+00  2.0000000000027711e+00  2.0000000000032956e+00  2.0000000000039173e+00  2.0000000000046541e+00  2.0000000000055280e+00  2.0000000000065628e+00  2.0000000000077884e+00  2.0000000000092384e+00  2.0000000000109535e+00  2.0000000000129816e+00  2.0000000000153806e+00  2.0000000000182148e+00  2.0000000000215623e+00  2.0000000000255151e+00  2.0000000000301803e+00  2.0000000000356843e+00  2.0000000000421743e+00  2.0000000000498264e+00  2.0000000000588427e+00  2.0000000000694618e+00  2.0000000000819660e+00  2.0000000000966818e+00  2.0000000001139928e+00  2.0000000001343516e+00  2.0000000001582836e+00  2.0000000001864042e+00  2.0000000002194329e+00  2.0000000002582117e+00  2.0000000003037206e+00  2.0000000003571072e+00  2.0000000004197118e+00  2.0000000004930962e+00  2.0000000005790799e+00  2.0000000006797860e+00  2.0000000007976859e+00  2.0000000009356613e+00  2.0000000010970669e+00  2.0000000012858004e+00  2.0000000015064003e+00  2.0000000017641426e+00  2.0000000020651596e+00  2.0000000024165723e+00  2.0000000028266554e+00  2.0000000033050065e+00  2.0000000038627621e+00  2.0000000045128412e+00  2.0000000052702149e+00  2.0000000061522347e+00  2.0000000071789938e+00  2.0000000083737581e+00  2.0000000097634509e+00  2.0000000113792162e+00  2.0000000132570612e+00  2.0000000154386059e+00  2.0000000179719328e+00  2.0000000209125641e+00  2.0000000243245868e+00  2.0000000282819488e+00  2.0000000328699321e+00  2.0000000381868497e+00  2.0000000443459869e+00  2.0000000514778287e+00  2.0000000597326051e+00  2.0000000692832032e+00  2.0000000803284981e+00  2.0000000930971633e+00  2.0000001078520206e+00  2.0000001248950090e+00  2.0000001445728537e+00  2.0000001672835439e+00  2.0000001934837059e+00  2.0000002236970151e+00  2.0000002585237873e+00  2.0000002986518912e+00  2.0000003448691710e+00  2.0000003980775829e+00  2.0000004593092786e+00  2.0000005297448697e+00  2.0000006107341997e+00  2.0000007038199188e+00  2.0000008107642473e+00  2.0000009335793414e+00  2.0000010745617289e+00  2.0000012363313369e+00  2.0000014218757109e+00  2.0000016346000873e+00  2.0000018783840603e+00  2.0000021576457003e+00  2.0000024774140428e+00  2.0000028434110173e+00  2.0000032621440038e+00  2.0000037410103246e+00  2.0000042884151741e+00  2.0000049139046290e+00  2.0000056283156153e+00  2.0000064439448888e+00  2.0000073747393574e+00  2.0000084365103210e+00  2.0000096471745308e+00  2.0000110270252707e+00  2.0000125990370514e+00  2.0000143892079092e+00  2.0000164269437546e+00  2.0000187454897103e+00  2.0000213824139279e+00  2.0000243801499895e+00  2.0000277866046718e+00  2.0000316558385705e+00  2.0000360488279330e+00  2.0000410343169222e+00  2.0000466897705240e+00  2.0000531024394097e+00  2.0000603705492530e+00  2.0000686046282996e+00  2.0000779289884538e+00  2.0000884833766714e+00  2.0001004248152219e+00  2.0001139296512256e+00  2.0001291958379364e+00  2.0001464454724829e+00  2.0001659276172252e+00  2.0001879214345188e+00  2.0002127396675853e+00  2.0002407325033089e+00  2.0002722918561537e+00  2.0003078561161147e+00  2.0003479154074975e+00  2.0003930174096958e+00  2.0004437737956495e+00  2.0005008673486593e+00  2.0005650598235047e+00  2.0006372006234874e+00  2.0007182363710503e+00  2.0008092214560489e+00  2.0009113296525500e+00  2.0010258669022170e+00  2.0011542853698847e+00  2.0012981988848635e+00  2.0014593998897041e+00  2.0016398780266988e+00  2.0018418405011240e+00  2.0020677343691409e+00  2.0023202709072465e+00  2.0026024522290586e+00  2.0029176003239599e+00  2.0032693887004220e+00  2.0036618768246055e+00  2.0040995475516046e+00  2.0045873477524219e+00  2.0051307323437513e+00  2.0057357119296730e+00  2.0064089042637576e+00  2.0071575897362055e+00  2.0079897710828707e+00  2.0089142375002957e+00  2.0099406333323913e+00  2.0110795314689116e+00  2.0123425115620992e+00  2.0137422431244247e+00  2.0152925735155569e+00  2.0170086207587774e+00  2.0189068710441411e+00  2.0210052806755976e+00  2.0233233820999015e+00  2.0258823935141983e+00  2.0287053313843870e+00  2.0318171250156047e+00  2.0352447320975204e+00  2.0390172538990075e+00  2.0431660485082745e+00  2.0477248402055284e+00  2.0527298227167763e+00  2.0582197537321130e+00  2.0642360376840729e+00  2.0708227933784467e+00  2.0780269026607838e+00  2.0858980358998940e+00  2.0944886496914288e+00  2.1038539518510158e+00  2.1140518285022951e+00  2.1251427278996156e+00  2.1371894955908446e+00  2.1502571556584140e+00  2.1644126331132170e+00  2.1797244130929117e+00  2.1962621333667944e+00  2.2140961078003856e+00  2.2332967799007535e+00  2.2539341073504429e+00  2.2760768805271239e+00  2.2997919803589477e+00  2.3251435834184009e+00  2.3521923248201357e+00  2.3809944321456844e+00  2.4116008461334490e+00  2.4440563460936344e+00  2.4783986997772267e+00  2.5146578585933166e+00  2.5528552194968701e+00  2.5930029744588192e+00  2.6351035671257588e+00  2.6791492740761100e+00  2.7251219250404675e+00  2.7729927726928332e+00  2.8227225183064193e+00  2.8742614949142027e+00  2.9275500048584000e+00  2.9825188039993131e+00  3.0390897206160017e+00  3.0971763933724050e+00  3.1566851098022179e+00  3.2175157246894717e+00  3.2795626365368427e+00  3.3427158000105344e+00  3.4068617527689344e+00  3.4718846363208056e+00  3.5376671923866465e+00  3.6040917185073607e+00  3.6710409692057326e+00  3.7383989917132743e+00  3.8060518879966656e+00  3.8738884974433931e+00  3.9418009970073977e+00  4.0096854178086865e+00  4.0774420790852925e+00  4.1449759419912304e+00  4.2121968870178135e+00  4.2790199197989098e+00  4.3453653107652013e+00  4.4111586745666180e+00  4.4763309954185120e+00  4.5408186045798420e+00  4.6045631160743081e+00  4.6675113265498229e+00  4.7296150848672731e+00  4.7908311366414438e+00  4.8511209485482514e+00  4.9104505167807968e+00  4.9687901635980101e+00  5.0261143254754632e+00  5.0824013359476039e+00  5.1376332058308671e+00  5.1917954031425468e+00  5.2448766346838278e+00  5.2968686309385582e+00  5.3477659356526175e+00  5.3975657012017191e+00  5.4462674906269886e+00  5.4938730870165964e+00  5.5403863107358200e+00  5.5858128448556448e+00  5.6301600689992259e+00  5.6734369017141137e+00  5.7156536513843266e+00  5.7568218756179741e+00  5.7969542489816623e+00  5.8360644389005838e+00  5.8741669895012585e+00  5.9112772131415259e+00  5.9474110893475087e+00  5.9825851708596307e+00  6.0168164964775546e+00  6.0501225103868412e+00  6.0825209876470270e+00  6.1140299655211550e+00  6.1446676803299320e+00  6.1744525095191456e+00  6.2034029186361233e+00  6.2315374129197831e+00  6.2588744932184834e+00  6.2854326159605209e+00  6.3112301569132354e+00  6.3362853784781530e+00  6.3606164002813470e+00  6.3842411728299444e+00  6.4071774540173356e+00  6.4294427882713059e+00  6.4510544881504748e+00  6.4720296182056103e+00  6.4923849809329708e+00  6.5121371046571896e+00  6.5313022331911537e+00  6.5498963171298596e+00  6.5679350066443067e+00  6.5854336456502223e+00  6.6024072672345939e+00  6.6188705902309000e+00  6.6348380168413152e+00  6.6503236312111946e+00  6.6653411988677540e+00  6.6799041669411894e+00  6.6940256650922363e+00  6.7077185070758318e+00  6.7209951928756535e+00  6.7338679113492148e+00  6.7463485433277697e+00  6.7584486651195395e+00  6.7701795523687789e+00  6.7815521842269586e+00  6.7925772477957835e+00  6.8032651428050697e+00  6.8136259864915170e+00  6.8236696186472061e+00  6.8334056068093840e+00  6.8428432515653679e+00  6.8519915919488996e+00  6.8608594109061860e+00  6.8694552408119218e+00  6.8777873690174207e+00  6.8858638434145956e+00  6.8936924780011406e+00  6.9012808584337053e+00  6.9086363475571231e+00  6.9157660908991021e+00  6.9226770221207632e+00  6.9293758684146489e+00  6.9358691558425898e+00  6.9421632146068690e+00  6.9482641842488579e+00  6.9541780187700395e+00  6.9599104916710788e+00  6.9654672009051763e+00  6.9708535737425592e+00  6.9760748715434513e+00  6.9811361944373971e+00  6.9860424859071841e+00  6.9907985372761186e+00  6.9954089920976106e+00  6.9998783504465241e+00  7.0042109731119524e+00  7.0084110856913293e+00  7.0124827825861304e+00  7.0164300308994960e+00  7.0202566742364709e+00  7.0239664364075525e+00  7.0275629250365421e+00  7.0310496350737610e+00  7.0344299522157892e+00  7.0377071562330968e+00  7.0408844242068911e+00  7.0439648336766938e+00  7.0469513657001777e+00  7.0498469078268835e+00  7.0526542569874344e+00  7.0553761222999665e+00  7.0580151277954641e+00  7.0605738150637807e+00  7.0630546458220946e+00  7.0654600044075568e+00  7.0677922001959415e+00  7.0700534699480517e+00  7.0722459800856985e+00  7.0743718288989763e+00  7.0764330486866509e+00  7.0784316078313578e+00  7.0803694128113781e+00  7.0822483101506783e+00  7.0840700883089358e+00  7.0858364795131701e+00  7.0875491615326540e+00  7.0892097593987344e+00  7.0908198470710655e+00  7.0923809490519156e+00  7.0938945419499735e+00  7.0953620559952153e+00  7.0967848765062351e+00  7.0981643453115062e+00  7.0995017621259162e+00  7.1007983858839792e+00  7.1020554360310051e+00  7.1032740937735310e+00  7.1044555032902954e+00  7.1056007729049115e+00  7.1067109762215050e+00  7.1077871532244234e+00  7.1088303113432012e+00  7.1098414264838343e+00  7.1108214440275122e+00  7.1117712797978019e+00  7.1126918209974050e+00  7.1135839271154575e+00  7.1144484308064104e+00  7.1152861387414976e+00  7.1160978324337840e+00  7.1168842690377607e+00  7.1176461821244779e+00  7.1183842824331798e+00  7.1190992586003983e+00  7.1197917778674560e+00  7.1204624867673045e+00  7.1211120117916318e+00  7.1217409600391184e+00  7.1223499198457159e+00  7.1229394613978112e+00  7.1235101373290179e+00  7.1240624833013770e+00  7.1245970185716390e+00  7.1251142465432675e+00  7.1256146553046662e+00  7.1260987181541084e+00  7.1265668941117832e+00  7.1270196284191245e+00  7.1274573530257124e+00  7.1278804870637140e+00  7.1282894373099062e+00  7.1286845986350889e+00  7.1290663544406847e+00  7.1294350770821620e+00  7.1297911282789572e+00  7.1301348595103473e+00  7.1304666123967948e+00  7.1307867190662177e+00  7.1310955025045963e+00  7.1313932768903587e+00  7.1316803479120230e+00  7.1319570130685577e+00  7.1322235619520802e+00  7.1324802765124860e+00  7.1327274313037901e+00  7.1329652937120116e+00  7.1331941241645831e+00  7.1334141763213852e+00  7.1336256972476360e+00  7.1338289275690379e+00  7.1340241016096284e+00  7.1342114475130254e+00  7.1343911873477550e+00  7.1345635371975824e+00  7.1347287072376995e+00  7.1348869017978966e+00  7.1350383194136988e+00  7.1351831528666416e+00  7.1353215892148043e+00  7.1354538098147398e+00  7.1355799903359554e+00  7.1357003007689821e+00  7.1358149054281501e+00  7.1359239629500015e+00  7.1360276262883078e+00  7.1361260427064908e+00  7.1362193537682410e+00  7.1363076953269937e+00  7.1363911975148140e+00  7.1364699847312014e+00  7.1365441756322472e+00  7.1366138831203783e+00  7.1366792143350226e+00  7.1367402706442853e+00  7.1367971476377923e+00  7.1368499351207060e+00  7.1368987171089326e+00  7.1369435718254790e+00  7.1369845716978455e+00  7.1370217833564045e+00  7.1370552676335768e+00  7.1370850795637359e+00  7.1371112683836442e+00  7.1371338775333060e+00  7.1371529446570960e+00  7.1371685016050330e+00  7.1371805744340637e+00  7.1371891834092791e+00  7.1371943430049356e+00  7.1371960619052581e+00  7.1371943430049365e+00  7.1371891834092791e+00  7.1371805744340655e+00  7.1371685016050304e+00  7.1371529446570952e+00  7.1371338775333060e+00  7.1371112683836442e+00  7.1370850795637359e+00  7.1370552676335759e+00  7.1370217833564036e+00  7.1369845716978446e+00  7.1369435718254781e+00  7.1368987171089326e+00  7.1368499351207069e+00  7.1367971476377914e+00  7.1367402706442844e+00  7.1366792143350191e+00  7.1366138831203747e+00  7.1365441756322419e+00  7.1364699847311988e+00  7.1363911975148078e+00  7.1363076953269902e+00  7.1362193537682366e+00  7.1361260427064854e+00  7.1360276262883069e+00  7.1359239629500024e+00  7.1358149054281519e+00  7.1357003007689839e+00  7.1355799903359562e+00  7.1354538098147415e+00  7.1353215892148034e+00  7.1351831528666425e+00  7.1350383194136997e+00  7.1348869017978993e+00  7.1347287072376995e+00  7.1345635371975833e+00  7.1343911873477595e+00  7.1342114475130263e+00  7.1340241016096311e+00  7.1338289275690396e+00  7.1336256972476377e+00  7.1334141763213843e+00  7.1331941241645822e+00  7.1329652937120107e+00  7.1327274313037874e+00  7.1324802765124824e+00  7.1322235619520775e+00  7.1319570130685559e+00  7.1316803479120212e+00  7.1313932768903552e+00  7.1310955025045919e+00  7.1307867190662151e+00  7.1304666123967912e+00  7.1301348595103438e+00  7.1297911282789537e+00  7.1294350770821584e+00  7.1290663544406785e+00  7.1286845986350880e+00  7.1282894373098999e+00  7.1278804870637078e+00  7.1274573530257079e+00  7.1270196284191236e+00  7.1265668941117823e+00  7.1260987181541084e+00  7.1256146553046635e+00  7.1251142465432702e+00  7.1245970185716443e+00  7.1240624833013797e+00  7.1235101373290188e+00  7.1229394613978103e+00  7.1223499198457150e+00  7.1217409600391184e+00  7.1211120117916336e+00  7.1204624867673099e+00  7.1197917778674604e+00  7.1190992586003992e+00  7.1183842824331807e+00  7.1176461821244779e+00  7.1168842690377607e+00  7.1160978324337831e+00  7.1152861387414941e+00  7.1144484308064069e+00  7.1135839271154548e+00  7.1126918209974042e+00  7.1117712797977992e+00  7.1108214440275113e+00  7.1098414264838343e+00  7.1088303113431968e+00  7.1077871532244181e+00  7.1067109762214997e+00  7.1056007729049080e+00  7.1044555032902919e+00  7.1032740937735284e+00  7.1020554360310006e+00  7.1007983858839774e+00  7.0995017621259153e+00  7.0981643453115062e+00  7.0967848765062351e+00  7.0953620559952135e+00  7.0938945419499735e+00  7.0923809490519130e+00  7.0908198470710628e+00  7.0892097593987291e+00  7.0875491615326522e+00  7.0858364795131648e+00  7.0840700883089358e+00  7.0822483101506792e+00  7.0803694128113799e+00  7.0784316078313614e+00  7.0764330486866518e+00  7.0743718288989808e+00  7.0722459800857020e+00  7.0700534699480562e+00  7.0677922001959450e+00  7.0654600044075613e+00  7.0630546458220973e+00  7.0605738150637825e+00  7.0580151277954650e+00  7.0553761222999674e+00  7.0526542569874353e+00  7.0498469078268826e+00  7.0469513657001768e+00  7.0439648336766965e+00  7.0408844242068964e+00  7.0377071562330995e+00  7.0344299522157892e+00  7.0310496350737584e+00  7.0275629250365395e+00  7.0239664364075516e+00  7.0202566742364727e+00  7.0164300308994960e+00  7.0124827825861304e+00  7.0084110856913293e+00  7.0042109731119515e+00  6.9998783504465241e+00  6.9954089920976115e+00  6.9907985372761212e+00  6.9860424859071868e+00  6.9811361944373980e+00  6.9760748715434548e+00  6.9708535737425619e+00  6.9654672009051781e+00  6.9599104916710788e+00  6.9541780187700386e+00  6.9482641842488579e+00  6.9421632146068672e+00  6.9358691558425889e+00  6.9293758684146471e+00  6.9226770221207632e+00  6.9157660908991021e+00  6.9086363475571231e+00  6.9012808584337044e+00  6.8936924780011424e+00  6.8858638434145991e+00  6.8777873690174234e+00  6.8694552408119245e+00  6.8608594109061860e+00  6.8519915919488987e+00  6.8428432515653688e+00  6.8334056068093858e+00  6.8236696186472114e+00  6.8136259864915187e+00  6.8032651428050732e+00  6.7925772477957862e+00  6.7815521842269604e+00  6.7701795523687780e+00  6.7584486651195368e+00  6.7463485433277688e+00  6.7338679113492148e+00  6.7209951928756535e+00  6.7077185070758292e+00  6.6940256650922345e+00  6.6799041669411876e+00  6.6653411988677513e+00  6.6503236312111902e+00  6.6348380168413135e+00  6.6188705902308973e+00  6.6024072672345930e+00  6.5854336456502205e+00  6.5679350066443076e+00  6.5498963171298588e+00  6.5313022331911554e+00  6.5121371046571888e+00  6.4923849809329690e+00  6.4720296182056067e+00  6.4510544881504712e+00  6.4294427882713041e+00  6.4071774540173356e+00  6.3842411728299444e+00  6.3606164002813479e+00  6.3362853784781530e+00  6.3112301569132372e+00  6.2854326159605218e+00  6.2588744932184825e+00  6.2315374129197805e+00  6.2034029186361233e+00  6.1744525095191465e+00  6.1446676803299338e+00  6.1140299655211559e+00  6.0825209876470279e+00  6.0501225103868412e+00  6.0168164964775546e+00  5.9825851708596325e+00  5.9474110893475132e+00  5.9112772131415277e+00  5.8741669895012620e+00  5.8360644389005856e+00  5.7969542489816686e+00  5.7568218756179768e+00  5.7156536513843319e+00  5.6734369017141182e+00  5.6301600689992277e+00  5.5858128448556483e+00  5.5403863107358218e+00  5.4938730870165999e+00  5.4462674906269921e+00  5.3975657012017244e+00  5.3477659356526228e+00  5.2968686309385609e+00  5.2448766346838323e+00  5.1917954031425513e+00  5.1376332058308734e+00  5.0824013359476083e+00  5.0261143254754668e+00  4.9687901635980127e+00  4.9104505167807995e+00  4.8511209485482532e+00  4.7908311366414473e+00  4.7296150848672749e+00  4.6675113265498274e+00  4.6045631160743090e+00  4.5408186045798482e+00  4.4763309954185155e+00  4.4111586745666207e+00  4.3453653107652030e+00  4.2790199197989134e+00  4.2121968870178179e+00  4.1449759419912375e+00  4.0774420790852979e+00  4.0096854178086918e+00  3.9418009970074026e+00  3.8738884974433985e+00  3.8060518879966692e+00  3.7383989917132792e+00  3.6710409692057366e+00  3.6040917185073660e+00  3.5376671923866509e+00  3.4718846363208091e+00  3.4068617527689371e+00  3.3427158000105370e+00  3.2795626365368467e+00  3.2175157246894752e+00  3.1566851098022215e+00  3.0971763933724095e+00  3.0390897206160057e+00  2.9825188039993171e+00  2.9275500048584036e+00  2.8742614949142058e+00  2.8227225183064228e+00  2.7729927726928363e+00  2.7251219250404710e+00  2.6791492740761140e+00  2.6351035671257632e+00  2.5930029744588214e+00  2.5528552194968728e+00  2.5146578585933170e+00  2.4783986997772285e+00  2.4440563460936358e+00  2.4116008461334508e+00  2.3809944321456853e+00  2.3521923248201362e+00  2.3251435834184018e+00  2.2997919803589477e+00  2.2760768805271252e+00  2.2539341073504442e+00  2.2332967799007544e+00  2.2140961078003860e+00  2.1962621333667944e+00  2.1797244130929117e+00  2.1644126331132170e+00  2.1502571556584136e+00  2.1371894955908437e+00  2.1251427278996151e+00  2.1140518285022956e+00  2.1038539518510158e+00  2.0944886496914288e+00  2.0858980358998940e+00  2.0780269026607829e+00  2.0708227933784467e+00  2.0642360376840734e+00  2.0582197537321125e+00  2.0527298227167767e+00  2.0477248402055284e+00  2.0431660485082741e+00  2.0390172538990043e+00  2.0352447320975187e+00  2.0318171250156025e+00  2.0287053313843844e+00  2.0258823935141961e+00  2.0233233820999006e+00  2.0210052806755971e+00  2.0189068710441402e+00  2.0170086207587770e+00  2.0152925735155574e+00  2.0137422431244252e+00  2.0123425115620992e+00  2.0110795314689116e+00  2.0099406333323917e+00  2.0089142375002962e+00  2.0079897710828711e+00  2.0071575897362046e+00  2.0064089042637554e+00  2.0057357119296717e+00  2.0051307323437499e+00  2.0045873477524228e+00  2.0040995475516055e+00  2.0036618768246068e+00  2.0032693887004229e+00  2.0029176003239599e+00  2.0026024522290586e+00  2.0023202709072470e+00  2.0020677343691418e+00  2.0018418405011258e+00  2.0016398780267015e+00  2.0014593998897054e+00  2.0012981988848635e+00  2.0011542853698852e+00  2.0010258669022178e+00  2.0009113296525