<?xml version="1.0"?>
<VTKFile type="UnstructuredGrid"  version="0.1"  >
<UnstructuredGrid>
<Piece  NumberOfPoints="1001" NumberOfCells="1000">
<Points>
<DataArray  type="Float64"  NumberOfComponents="3"  format="ascii">0 0 0  0.001 0 0  0.002 0 0  0.003 0 0  0.004 0 0  0.005 0 0  0.006 0 0  0.007 0 0  0.008 0 0  0.008999999999999999 0 0  0.01 0 0  0.011 0 0  0.012 0 0  0.013 0 0  0.014 0 0  0.015 0 0  0.016 0 0  0.017 0 0  0.018 0 0  0.019 0 0  0.02 0 0  0.021 0 0  0.022 0 0  0.023 0 0  0.024 0 0  0.025 0 0  0.026 0 0  0.027 0 0  0.028 0 0  0.029 0 0  0.03 0 0  0.031 0 0  0.032 0 0  0.033 0 0  0.034 0 0  0.035 0 0  0.036 0 0  0.037 0 0  0.038 0 0  0.039 0 0  0.04 0 0  0.041 0 0  0.042 0 0  0.043 0 0  0.044 0 0  0.045 0 0  0.046 0 0  0.047 0 0  0.048 0 0  0.049 0 0  0.05 0 0  0.051 0 0  0.052 0 0  0.053 0 0  0.054 0 0  0.055 0 0  0.056 0 0  0.057 0 0  0.058 0 0  0.059 0 0  0.06 0 0  0.061 0 0  0.062 0 0  0.063 0 0  0.064 0 0  0.065 0 0  0.066 0 0  0.067 0 0  0.068 0 0  0.06900000000000001 0 0  0.07000000000000001 0 0  0.07099999999999999 0 0  0.07199999999999999 0 0  0.073 0 0  0.074 0 0  0.075 0 0  0.076 0 0  0.077 0 0  0.078 0 0  0.079 0 0  0.08 0 0  0.081 0 0  0.082 0 0  0.083 0 0  0.08400000000000001 0 0  0.08500000000000001 0 0  0.08599999999999999 0 0  0.08699999999999999 0 0  0.08799999999999999 0 0  0.089 0 0  0.09 0 0  0.091 0 0  0.092 0 0  0.093 0 0  0.094 0 0  0.095 0 0  0.096 0 0  0.097 0 0  0.098 0 0  0.099 0 0  0.1 0 0  0.101 0 0  0.102 0 0  0.103 0 0  0.104 0 0  0.105 0 0  0.106 0 0  0.107 0 0  0.108 0 0  0.109 0 0  0.11 0 0  0.111 0 0  0.112 0 0  0.113 0 0  0.114 0 0  0.115 0 0  0.116 0 0  0.117 0 0  0.118 0 0  0.119 0 0  0.12 0 0  0.121 0 0  0.122 0 0  0.123 0 0  0.124 0 0  0.125 0 0  0.126 0 0  0.127 0 0  0.128 0 0  0.129 0 0  0.13 0 0  0.131 0 0  0.132 0 0  0.133 0 0  0.134 0 0  0.135 0 0  0.136 0 0  0.137 0 0  0.138 0 0  0.139 0 0  0.14 0 0  0.141 0 0  0.142 0 0  0.143 0 0  0.144 0 0  0.145 0 0  0.146 0 0  0.147 0 0  0.148 0 0  0.149 0 0  0.15 0 0  0.151 0 0  0.152 0 0  0.153 0 0  0.154 0 0  0.155 0 0  0.156 0 0  0.157 0 0  0.158 0 0  0.159 0 0  0.16 0 0  0.161 0 0  0.162 0 0  0.163 0 0  0.164 0 0  0.165 0 0  0.166 0 0  0.167 0 0  0.168 0 0  0.169 0 0  0.17 0 0  0.171 0 0  0.172 0 0  0.173 0 0  0.174 0 0  0.175 0 0  0.176 0 0  0.177 0 0  0.178 0 0  0.179 0 0  0.18 0 0  0.181 0 0  0.182 0 0  0.183 0 0  0.184 0 0  0.185 0 0  0.186 0 0  0.187 0 0  0.188 0 0  0.189 0 0  0.19 0 0  0.191 0 0  0.192 0 0  0.193 0 0  0.194 0 0  0.195 0 0  0.196 0 0  0.197 0 0  0.198 0 0  0.199 0 0  0.2 0 0  0.201 0 0  0.202 0 0  0.203 0 0  0.204 0 0  0.205 0 0  0.206 0 0  0.207 0 0  0.208 0 0  0.209 0 0  0.21 0 0  0.211 0 0  0.212 0 0  0.213 0 0  0.214 0 0  0.215 0 0  0.216 0 0  0.217 0 0  0.218 0 0  0.219 0 0  0.22 0 0  0.221 0 0  0.222 0 0  0.223 0 0  0.224 0 0  0.225 0 0  0.226 0 0  0.227 0 0  0.228 0 0  0.229 0 0  0.23 0 0  0.231 0 0  0.232 0 0  0.233 0 0  0.234 0 0  0.235 0 0  0.236 0 0  0.237 0 0  0.238 0 0  0.239 0 0  0.24 0 0  0.241 0 0  0.242 0 0  0.243 0 0  0.244 0 0  0.245 0 0  0.246 0 0  0.247 0 0  0.248 0 0  0.249 0 0  0.25 0 0  0.251 0 0  0.252 0 0  0.253 0 0  0.254 0 0  0.255 0 0  0.256 0 0  0.257 0 0  0.258 0 0  0.259 0 0  0.26 0 0  0.261 0 0  0.262 0 0  0.263 0 0  0.264 0 0  0.265 0 0  0.266 0 0  0.267 0 0  0.268 0 0  0.269 0 0  0.27 0 0  0.271 0 0  0.272 0 0  0.273 0 0  0.274 0 0  0.275 0 0  0.276 0 0  0.277 0 0  0.278 0 0  0.279 0 0  0.28 0 0  0.281 0 0  0.282 0 0  0.283 0 0  0.284 0 0  0.285 0 0  0.286 0 0  0.287 0 0  0.288 0 0  0.289 0 0  0.29 0 0  0.291 0 0  0.292 0 0  0.293 0 0  0.294 0 0  0.295 0 0  0.296 0 0  0.297 0 0  0.298 0 0  0.299 0 0  0.3 0 0  0.301 0 0  0.302 0 0  0.303 0 0  0.304 0 0  0.305 0 0  0.306 0 0  0.307 0 0  0.308 0 0  0.309 0 0  0.31 0 0  0.311 0 0  0.312 0 0  0.313 0 0  0.314 0 0  0.315 0 0  0.316 0 0  0.317 0 0  0.318 0 0  0.319 0 0  0.32 0 0  0.321 0 0  0.322 0 0  0.323 0 0  0.324 0 0  0.325 0 0  0.326 0 0  0.327 0 0  0.328 0 0  0.329 0 0  0.33 0 0  0.331 0 0  0.332 0 0  0.333 0 0  0.334 0 0  0.335 0 0  0.336 0 0  0.337 0 0  0.338 0 0  0.339 0 0  0.34 0 0  0.341 0 0  0.342 0 0  0.343 0 0  0.344 0 0  0.345 0 0  0.346 0 0  0.347 0 0  0.348 0 0  0.349 0 0  0.35 0 0  0.351 0 0  0.352 0 0  0.353 0 0  0.354 0 0  0.355 0 0  0.356 0 0  0.357 0 0  0.358 0 0  0.359 0 0  0.36 0 0  0.361 0 0  0.362 0 0  0.363 0 0  0.364 0 0  0.365 0 0  0.366 0 0  0.367 0 0  0.368 0 0  0.369 0 0  0.37 0 0  0.371 0 0  0.372 0 0  0.373 0 0  0.374 0 0  0.375 0 0  0.376 0 0  0.377 0 0  0.378 0 0  0.379 0 0  0.38 0 0  0.381 0 0  0.382 0 0  0.383 0 0  0.384 0 0  0.385 0 0  0.386 0 0  0.387 0 0  0.388 0 0  0.389 0 0  0.39 0 0  0.391 0 0  0.392 0 0  0.393 0 0  0.394 0 0  0.395 0 0  0.396 0 0  0.397 0 0  0.398 0 0  0.399 0 0  0.4 0 0  0.401 0 0  0.402 0 0  0.403 0 0  0.404 0 0  0.405 0 0  0.406 0 0  0.407 0 0  0.408 0 0  0.409 0 0  0.41 0 0  0.411 0 0  0.412 0 0  0.413 0 0  0.414 0 0  0.415 0 0  0.416 0 0  0.417 0 0  0.418 0 0  0.419 0 0  0.42 0 0  0.421 0 0  0.422 0 0  0.423 0 0  0.424 0 0  0.425 0 0  0.426 0 0  0.427 0 0  0.428 0 0  0.429 0 0  0.43 0 0  0.431 0 0  0.432 0 0  0.433 0 0  0.434 0 0  0.435 0 0  0.436 0 0  0.437 0 0  0.438 0 0  0.439 0 0  0.44 0 0  0.441 0 0  0.442 0 0  0.443 0 0  0.444 0 0  0.445 0 0  0.446 0 0  0.447 0 0  0.448 0 0  0.449 0 0  0.45 0 0  0.451 0 0  0.452 0 0  0.453 0 0  0.454 0 0  0.455 0 0  0.456 0 0  0.457 0 0  0.458 0 0  0.459 0 0  0.46 0 0  0.461 0 0  0.462 0 0  0.463 0 0  0.464 0 0  0.465 0 0  0.466 0 0  0.467 0 0  0.468 0 0  0.469 0 0  0.47 0 0  0.471 0 0  0.472 0 0  0.473 0 0  0.474 0 0  0.475 0 0  0.476 0 0  0.477 0 0  0.478 0 0  0.479 0 0  0.48 0 0  0.481 0 0  0.482 0 0  0.483 0 0  0.484 0 0  0.485 0 0  0.486 0 0  0.487 0 0  0.488 0 0  0.489 0 0  0.49 0 0  0.491 0 0  0.492 0 0  0.493 0 0  0.494 0 0  0.495 0 0  0.496 0 0  0.497 0 0  0.498 0 0  0.499 0 0  0.5 0 0  0.501 0 0  0.502 0 0  0.503 0 0  0.504 0 0  0.505 0 0  0.506 0 0  0.507 0 0  0.508 0 0  0.509 0 0  0.51 0 0  0.511 0 0  0.512 0 0  0.513 0 0  0.514 0 0  0.515 0 0  0.516 0 0  0.517 0 0  0.518 0 0  0.519 0 0  0.52 0 0  0.521 0 0  0.522 0 0  0.523 0 0  0.524 0 0  0.525 0 0  0.526 0 0  0.527 0 0  0.528 0 0  0.529 0 0  0.53 0 0  0.531 0 0  0.532 0 0  0.533 0 0  0.534 0 0  0.535 0 0  0.536 0 0  0.537 0 0  0.538 0 0  0.539 0 0  0.54 0 0  0.541 0 0  0.542 0 0  0.543 0 0  0.544 0 0  0.545 0 0  0.546 0 0  0.547 0 0  0.548 0 0  0.549 0 0  0.55 0 0  0.551 0 0  0.552 0 0  0.553 0 0  0.554 0 0  0.555 0 0  0.556 0 0  0.5570000000000001 0 0  0.5580000000000001 0 0  0.5590000000000001 0 0  0.5600000000000001 0 0  0.5610000000000001 0 0  0.5620000000000001 0 0  0.5629999999999999 0 0  0.5639999999999999 0 0  0.5649999999999999 0 0  0.5659999999999999 0 0  0.5669999999999999 0 0  0.5679999999999999 0 0  0.569 0 0  0.57 0 0  0.571 0 0  0.572 0 0  0.573 0 0  0.574 0 0  0.575 0 0  0.576 0 0  0.577 0 0  0.578 0 0  0.579 0 0  0.58 0 0  0.581 0 0  0.582 0 0  0.583 0 0  0.584 0 0  0.585 0 0  0.586 0 0  0.587 0 0  0.588 0 0  0.589 0 0  0.59 0 0  0.591 0 0  0.592 0 0  0.593 0 0  0.594 0 0  0.595 0 0  0.596 0 0  0.597 0 0  0.598 0 0  0.599 0 0  0.6 0 0  0.601 0 0  0.602 0 0  0.603 0 0  0.604 0 0  0.605 0 0  0.606 0 0  0.607 0 0  0.608 0 0  0.609 0 0  0.61 0 0  0.611 0 0  0.612 0 0  0.613 0 0  0.614 0 0  0.615 0 0  0.616 0 0  0.617 0 0  0.618 0 0  0.619 0 0  0.62 0 0  0.621 0 0  0.622 0 0  0.623 0 0  0.624 0 0  0.625 0 0  0.626 0 0  0.627 0 0  0.628 0 0  0.629 0 0  0.63 0 0  0.631 0 0  0.632 0 0  0.633 0 0  0.634 0 0  0.635 0 0  0.636 0 0  0.637 0 0  0.638 0 0  0.639 0 0  0.64 0 0  0.641 0 0  0.642 0 0  0.643 0 0  0.644 0 0  0.645 0 0  0.646 0 0  0.647 0 0  0.648 0 0  0.649 0 0  0.65 0 0  0.651 0 0  0.652 0 0  0.653 0 0  0.654 0 0  0.655 0 0  0.656 0 0  0.657 0 0  0.658 0 0  0.659 0 0  0.66 0 0  0.661 0 0  0.662 0 0  0.663 0 0  0.664 0 0  0.665 0 0  0.666 0 0  0.667 0 0  0.668 0 0  0.669 0 0  0.67 0 0  0.671 0 0  0.672 0 0  0.673 0 0  0.674 0 0  0.675 0 0  0.676 0 0  0.677 0 0  0.678 0 0  0.679 0 0  0.68 0 0  0.681 0 0  0.6820000000000001 0 0  0.6830000000000001 0 0  0.6840000000000001 0 0  0.6850000000000001 0 0  0.6860000000000001 0 0  0.6870000000000001 0 0  0.6879999999999999 0 0  0.6889999999999999 0 0  0.6899999999999999 0 0  0.6909999999999999 0 0  0.6919999999999999 0 0  0.6929999999999999 0 0  0.694 0 0  0.695 0 0  0.696 0 0  0.697 0 0  0.698 0 0  0.699 0 0  0.7 0 0  0.701 0 0  0.702 0 0  0.703 0 0  0.704 0 0  0.705 0 0  0.706 0 0  0.707 0 0  0.708 0 0  0.709 0 0  0.71 0 0  0.711 0 0  0.712 0 0  0.713 0 0  0.714 0 0  0.715 0 0  0.716 0 0  0.717 0 0  0.718 0 0  0.719 0 0  0.72 0 0  0.721 0 0  0.722 0 0  0.723 0 0  0.724 0 0  0.725 0 0  0.726 0 0  0.727 0 0  0.728 0 0  0.729 0 0  0.73 0 0  0.731 0 0  0.732 0 0  0.733 0 0  0.734 0 0  0.735 0 0  0.736 0 0  0.737 0 0  0.738 0 0  0.739 0 0  0.74 0 0  0.741 0 0  0.742 0 0  0.743 0 0  0.744 0 0  0.745 0 0  0.746 0 0  0.747 0 0  0.748 0 0  0.749 0 0  0.75 0 0  0.751 0 0  0.752 0 0  0.753 0 0  0.754 0 0  0.755 0 0  0.756 0 0  0.757 0 0  0.758 0 0  0.759 0 0  0.76 0 0  0.761 0 0  0.762 0 0  0.763 0 0  0.764 0 0  0.765 0 0  0.766 0 0  0.767 0 0  0.768 0 0  0.769 0 0  0.77 0 0  0.771 0 0  0.772 0 0  0.773 0 0  0.774 0 0  0.775 0 0  0.776 0 0  0.777 0 0  0.778 0 0  0.779 0 0  0.78 0 0  0.781 0 0  0.782 0 0  0.783 0 0  0.784 0 0  0.785 0 0  0.786 0 0  0.787 0 0  0.788 0 0  0.789 0 0  0.79 0 0  0.791 0 0  0.792 0 0  0.793 0 0  0.794 0 0  0.795 0 0  0.796 0 0  0.797 0 0  0.798 0 0  0.799 0 0  0.8 0 0  0.801 0 0  0.802 0 0  0.803 0 0  0.804 0 0  0.805 0 0  0.806 0 0  0.8070000000000001 0 0  0.8080000000000001 0 0  0.8090000000000001 0 0  0.8100000000000001 0 0  0.8110000000000001 0 0  0.8120000000000001 0 0  0.8129999999999999 0 0  0.8139999999999999 0 0  0.8149999999999999 0 0  0.8159999999999999 0 0  0.8169999999999999 0 0  0.8179999999999999 0 0  0.819 0 0  0.82 0 0  0.821 0 0  0.822 0 0  0.823 0 0  0.824 0 0  0.825 0 0  0.826 0 0  0.827 0 0  0.828 0 0  0.829 0 0  0.83 0 0  0.831 0 0  0.832 0 0  0.833 0 0  0.834 0 0  0.835 0 0  0.836 0 0  0.837 0 0  0.838 0 0  0.839 0 0  0.84 0 0  0.841 0 0  0
[...]
<PointData  Scalars="f_20-0"> 
<DataArray  type="Float64"  Name="f_20-0"  format="ascii">2.0021918076254495e+00  2.0022043536976497e+00  2.0022421196410560e+00  2.0023054897295469e+00  2.0023951080708811e+00  2.0025118841059819e+00  2.0026570003525697e+00  2.0028319224375895e+00  2.0030384114753614e+00  2.0032785388606138e+00  2.0035547035574810e+00  2.0038696519771522e+00  2.0042265005478508e+00  2.0046287610912343e+00  2.0050803691288168e+00  2.0055857152504779e+00  2.0061496796842024e+00  2.0067776702116404e+00  2.0074756635774107e+00  2.0082502505408728e+00  2.0091086847168595e+00  2.0100589353458509e+00  2.0111097441236412e+00  2.0122706862048445e+00  2.0135522354725413e+00  2.0149658341370404e+00  2.0165239666887391e+00  2.0182402381821469e+00  2.0201294567687027e+00  2.0222077203234847e+00  2.0244925069234956e+00  2.0270027688310459e+00  2.0297590295130261e+00  2.0327834830835698e+00  2.0361000953921011e+00  2.0397347057893112e+00  2.0437151283890596e+00  2.0480712514037411e+00  2.0528351328642898e+00  2.0580410907446289e+00  2.0637257851962203e+00  2.0699282902652505e+00  2.0766901521186223e+00  2.0840554304534180e+00  2.0920707194187025e+00  2.1007851440522889e+00  2.1102503279456735e+00  2.1205203276182920e+00  2.1316515289318319e+00  2.1437025008335895e+00  2.1567338018143771e+00  2.1708077347322985e+00  2.1859880461193542e+00  2.2023395667817711e+00  2.2199277914506554e+00  2.2388183964524591e+00  2.2590766958532402e+00  2.2807670382763763e+00  2.3039521485721863e+00  2.3286924206816439e+00  2.3550451703153841e+00  2.3830638583726076e+00  2.4127972982428090e+00  2.4442888621423489e+00  2.4775757033065386e+00  2.5126880120560577e+00  2.5496483243661645e+00  2.5884709014928564e+00  2.6291611983899483e+00  2.6717154370646070e+00  2.7161202986937965e+00  2.7623527453367980e+00  2.8103799785528332e+00  2.8601595383299414e+00  2.9116395416419918e+00  2.9647590558786652e+00  3.0194485985405977e+00  3.0756307511433554e+00  3.1332208723840136e+00  3.1921278934069441e+00  3.2522551765284198e+00  3.3135014180627564e+00  3.3757615759101687e+00  3.4389278032541974e+00  3.5028903709791765e+00  3.5675385631410026e+00  3.6327615318818656e+00  3.6984491004457705e+00  3.7644925053079232e+00  3.8307850707720941e+00  3.8972228116279295e+00  3.9637049615264059e+00  4.0301344265772148e+00  4.0964181652666740e+00  4.1624674971249886e+00  4.2281983436373487e+00  4.2935314057058127e+00  4.3583922825468280e+00  4.4227115372776735e+00  4.4864247146309442e+00  4.5494723162685142e+00  4.6117997390729739e+00  4.6733571816021815e+00  4.7340995236253036e+00  4.7939861833382240e+00  4.8529809565009216e+00  4.9110518413649791e+00  4.9681708528785204e+00  5.0243138292786247e+00  5.0794602338156816e+00  5.1335929540056311e+00  5.1866981004789325e+00  5.2387648071916972e+00  5.2897850344864494e+00  5.3397533762374509e+00  5.3886668720886624e+00  5.4365248255901664e+00  5.4833286288599741e+00  5.5290815942413785e+00  5.5737887932897188e+00  5.6174569033046895e+00  5.6600940615238713e+00  5.7017097270078327e+00  5.7423145501757862e+00  5.7819202498914342e+00  5.8205394979502501e+00  5.8581858107804194e+00  5.8948734481388669e+00  5.9306173185602589e+00  5.9654328912993480e+00  5.9993361144948683e+00  6.0323433392754469e+00  6.0644712495241082e+00  6.0957367970170093e+00  6.1261571416540139e+00  6.1557495965025382e+00  6.1845315773818319e+00  6.2125205567218913e+00  6.2397340214393182e+00  6.2661894345813813e+00  6.2919042004989922e+00  6.3168956333192989e+00  6.3411809284987362e+00  6.3647771372475264e+00  6.3877011436270994e+00  6.4099696441318796e+00  6.4315991295770170e+00  6.4526058691234018e+00  6.4730058962808581e+00  6.4928149967395967e+00  6.5120486978890026e+00  6.5307222598913111e+00  6.5488506681859660e+00  6.5664486273083602e+00  6.5835305559140087e+00  6.6001105829064706e+00  6.6162025445739694e+00  6.6318199826461450e+00  6.6469761431883621e+00  6.6616839762567981e+00  6.6759561362428359e+00  6.6898049828404682e+00  6.7032425825751147e+00  6.7162807108368119e+00  6.7289308543649087e+00  6.7412042141354149e+00  6.7531117086057586e+00  6.7646639772753048e+00  6.7758713845231124e+00  6.7867440236875405e+00  6.7972917213550357e+00  6.8075240418282279e+00  6.8174502917457200e+00  6.8270795248284717e+00  6.8364205467296051e+00  6.8454819199666446e+00  6.8542719689168363e+00  6.8627987848581409e+00  6.8710702310398526e+00  6.8790939477684692e+00  6.8868773574956546e+00  6.8944276698965465e+00  6.9017518869276646e+00  6.9088568078549342e+00  6.9157490342431975e+00  6.9224349748996215e+00  6.9289208507641646e+00  6.9352126997411432e+00  6.9413163814666055e+00  6.9472375820068644e+00  6.9529818184842558e+00  6.9585544436266309e+00  6.9639606502376710e+00  6.9692054755855759e+00  6.9742938057081068e+00  6.9792303796323472e+00  6.9840197935079029e+00  6.9886665046526337e+00  6.9931748355102208e+00  6.9975489775192434e+00  7.0017929948935818e+00  7.0059108283142750e+00  7.0099062985330916e+00  7.0137831098882968e+00  7.0175448537332157e+00  7.0211950117783886e+00  7.0247369593481590e+00  7.0281739685527640e+00  7.0315092113769717e+00  7.0347457626864696e+00  7.0378866031533089e+00  7.0409346221016360e+00  7.0438926202752015e+00  7.0467633125279949e+00  7.0495493304395103e+00  7.0522532248561216e+00  7.0548774683601128e+00  7.0574244576678575e+00  7.0598965159587577e+00  7.0622958951364474e+00  7.0646247780238802e+00  7.0668852804937909e+00  7.0690794535361716e+00  7.0712092852642607e+00  7.0732767028605865e+00  7.0752835744646205e+00  7.0772317110035194e+00  7.0791228679674960e+00  7.0809587471312190e+00  7.0827409982227909e+00  7.0844712205416389e+00  7.0861509645268157e+00  7.0877817332770183e+00  7.0893649840237414e+00  7.0909021295588390e+00  7.0923945396178745e+00  7.0938435422204638e+00  7.0952504249689099e+00  7.0966164363063138e+00  7.0979427867354250e+00  7.0992306499992965e+00  7.1004811642249850e+00  7.1016954330313338e+00  7.1028745266019762e+00  7.1040194827245697e+00  7.1051313077973228e+00  7.1062109778038041e+00  7.1072594392570068e+00  7.1082776101136300e+00  7.1092663806594780e+00  7.1102266143668915e+00  7.1111591487250951e+00  7.1120647960442707e+00  7.1129443442342204e+00  7.1137985575583862e+00  7.1146281773640379e+00  7.1154339227893431e+00  7.1162164914480837e+00  7.1169765600927137e+00  7.1177147852564362e+00  7.1184318038750023e+00  7.1191282338888326e+00  7.1198046748261286e+00  7.1204617083675750e+00  7.1210998988931626e+00  7.1217197940118249e+00  7.1223219250743259e+00  7.1229068076699855e+00  7.1234749421077650e+00  7.1240268138822058e+00  7.1245628941246979e+00  7.1250836400405859e+00  7.1255894953325045e+00  7.1260808906104707e+00  7.1265582437890735e+00  7.1270219604722431e+00  7.1274724343259681e+00  7.1279100474393458e+00  7.1283351706743501e+00  7.1287481640046879e+00  7.1291493768440768e+00  7.1295391483643060e+00  7.1299178078033680e+00  7.1302856747640497e+00  7.1306430595032095e+00  7.1309902632120998e+00  7.1313275782880057e+00  7.1316552885974431e+00  7.1319736697312468e+00  7.1322829892517658e+00  7.1325835069324333e+00  7.1328754749899446e+00  7.1331591383092983e+00  7.1334347346619094e+00  7.1337024949170198e+00  7.1339626432466305e+00  7.1342153973241471e+00  7.1344609685169589e+00  7.1346995620731031e+00  7.1349313773022560e+00  7.1351566077511892e+00  7.1353754413738875e+00  7.1355880606964863e+00  7.1357946429771983e+00  7.1359953603613748e+00  7.1361903800319029e+00  7.1363798643549812e+00  7.1365639710215589e+00  7.1367428531844554e+00  7.1369166595913516e+00  7.1370855347137843e+00  7.1372496188722412e+00  7.1374090483575054e+00  7.1375639555483472e+00  7.1377144690256920e+00  7.1378607136833638e+00  7.1380028108355029e+00  7.1381408783208018e+00  7.1382750306035838e+00  7.1384053788719068e+00  7.1385320311327130e+00  7.1386550923041723e+00  7.1387746643052532e+00  7.1388908461426510e+00  7.1390037339951400e+00  7.1391134212953977e+00  7.1392199988094394e+00  7.1393235547136840e+00  7.1394241746697391e+00  7.1395219418969980e+00  7.1396169372430718e+00  7.1397092392521690e+00  7.1397989242314326e+00  7.1398860663153645e+00  7.1399707375283228e+00  7.1400530078452062e+00  7.1401329452503441e+00  7.1402106157946790e+00  7.1402860836512536e+00  7.1403594111691007e+00  7.1404306589255269e+00  7.1404998857768991e+00  7.1405671489079356e+00  7.1406325038795542e+00  7.1406960046753527e+00  7.1407577037467007e+00  7.1408176520565494e+00  7.1408758991219567e+00  7.1409324930553817e+00  7.1409874806047799e+00  7.1410409071925240e+00  7.1410928169532353e+00  7.1411432527704672e+00  7.1411922563123742e+00  7.1412398680663172e+00  7.1412861273724939e+00  7.1413310724565884e+00  7.1413747404614751e+00  7.1414171674780089e+00  7.1414583885749527e+00  7.1414984378279867e+00  7.1415373483479634e+00  7.1415751523082820e+00  7.1416118809715021e+00  7.1416475647152051e+00  7.1416822330570984e+00  7.1417159146793958e+00  7.1417486374525199e+00  7.1417804284580955e+00  7.1418113140113206e+00  7.1418413196826673e+00  7.1418704703189837e+00  7.1418987900639639e+00  7.1419263023780770e+00  7.1419530300578833e+00  7.1419789952548314e+00  7.1420042194935025e+00  7.1420287236893394e+00  7.1420525281658680e+00  7.1420756526714344e+00  7.1420981163954549e+00  7.1421199379842255e+00  7.1421411355562512e+00  7.1421617267171573e+00  7.1421817285741920e+00  7.1422011577502795e+00  7.1422200303977093e+00  7.1422383622114154e+00  7.1422561684418868e+00  7.1422734639077197e+00  7.1422902630077969e+00  7.1423065797331367e+00  7.1423224276783959e+00  7.1423378200530570e+00  7.1423527696922875e+00  7.1423672890675052e+00  7.1423813902966309e+00  7.1423950851540612e+00  7.1424083850803530e+00  7.1424213011916375e+00  7.1424338442887700e+00  7.1424460248662136e+00  7.1424578531206784e+00  7.1424693389595157e+00  7.1424804920088700e+00  7.1424913216216099e+00  7.1425018368850228e+00  7.1425120466282968e+00  7.1425219594297973e+00  7.1425315836241365e+00  7.1425409273090246e+00  7.1425499983519574e+00  7.1425588043966801e+00  7.1425673528695111e+00  7.1425756509854272e+00  7.1425837057540393e+00  7.1425915239853586e+00  7.1425991122954011e+00  7.1426064771116504e+00  7.1426136246783525e+00  7.1426205610616549e+00  7.1426272921546108e+00  7.1426338236820355e+00  7.1426401612052093e+00  7.1426463101264765e+00  7.1426522756936759e+00  7.1426580630044691e+00  7.1426636770105327e+00  7.1426691225216263e+00  7.1426744042095471e+00  7.1426795266119649e+00  7.1426844941361534e+00  7.1426893110625933e+00  7.1426939815484882e+00  7.1426985096311633e+00  7.1427028992313613e+00  7.1427071541564526e+00  7.1427112781035360e+00  7.1427152746624394e+00  7.1427191473186538e+00  7.1427228994561407e+00  7.1427265343600936e+00  7.1427300552195740e+00  7.1427334651300791e+00  7.1427367670960491e+00  7.1427399640332556e+00  7.1427430587711420e+00  7.1427460540550713e+00  7.1427489525485122e+00  7.1427517568351409e+00  7.1427544694208747e+00  7.1427570927358381e+00  7.1427596291362727e+00  7.1427620809063566e+00  7.1427644502599792e+00  7.1427667393424406e+00  7.1427689502321021e+00  7.1427710849419626e+00  7.1427731454211862e+00  7.1427751335565697e+00  7.1427770511739617e+00  7.1427789000396018e+00  7.1427806818614474e+00  7.1427823982904082e+00  7.1427840509215637e+00  7.1427856412952977e+00  7.1427871708984290e+00  7.1427886411652484e+00  7.1427900534785493e+00  7.1427914091705924e+00  7.1427927095240253e+00  7.1427939557727838e+00  7.1427951491029260e+00  7.1427962906534441e+00  7.1427973815170329e+00  7.1427984227408174e+00  7.1427994153270511e+00  7.1428003602337711e+00  7.1428012583754352e+00  7.1428021106235073e+00  7.1428029178070140e+00  7.1428036807130848e+00  7.1428044000874422e+00  7.1428050766348763e+00  7.1428057110196841e+00  7.1428063038660854e+00  7.1428068557585993e+00  7.1428073672424155e+00  7.1428078388237122e+00  7.1428082709699758e+00  7.1428086641102748e+00  7.1428090186355240e+00  7.1428093348987147e+00  7.1428096132151193e+00  7.1428098538624853e+00  7.1428100570812045e+00  7.1428102230744388e+00  7.1428103520082589e+00  7.1428104440117233e+00  7.1428104991769645e+00  7.1428105175592407e+00  7.1428104991769645e+00  7.1428104440117233e+00  7.1428103520082598e+00  7.1428102230744406e+00  7.1428100570812010e+00  7.1428098538624818e+00  7.1428096132151131e+00  7.1428093348987103e+00  7.1428090186355213e+00  7.1428086641102713e+00  7.1428082709699705e+00  7.1428078388237068e+00  7.1428073672424128e+00  7.1428068557585958e+00  7.1428063038660810e+00  7.1428057110196796e+00  7.1428050766348710e+00  7.1428044000874404e+00  7.1428036807130821e+00  7.1428029178070105e+00  7.1428021106235020e+00  7.1428012583754299e+00  7.1428003602337666e+00  7.1427994153270467e+00  7.1427984227408148e+00  7.1427973815170303e+00  7.1427962906534423e+00  7.1427951491029242e+00  7.1427939557727802e+00  7.1427927095240209e+00  7.1427914091705862e+00  7.1427900534785467e+00  7.1427886411652475e+00  7.1427871708984281e+00  7.1427856412953004e+00  7.1427840509215654e+00  7.1427823982904126e+00  7.1427806818614510e+00  7.1427789000396036e+00  7.1427770511739617e+00  7.1427751335565697e+00  7.1427731454211862e+00  7.1427710849419634e+00  7.1427689502321048e+00  7.1427667393424441e+00  7.1427644502599819e+00  7.1427620809063574e+00  7.1427596291362718e+00  7.1427570927358364e+00  7.1427544694208720e+00  7.1427517568351400e+00  7.1427489525485131e+00  7.1427460540550713e+00  7.1427430587711394e+00  7.1427399640332538e+00  7.1427367670960482e+00  7.1427334651300773e+00  7.1427300552195714e+00  7.1427265343600927e+00  7.1427228994561389e+00  7.1427191473186493e+00  7.1427152746624367e+00  7.1427112781035325e+00  7.1427071541564500e+00  7.1427028992313577e+00  7.1426985096311588e+00  7.1426939815484847e+00  7.1426893110625898e+00  7.1426844941361507e+00  7.1426795266119640e+00  7.1426744042095445e+00  7.1426691225216254e+00  7.1426636770105327e+00  7.1426580630044691e+00  7.1426522756936741e+00  7.1426463101264730e+00  7.1426401612052075e+00  7.1426338236820337e+00  7.1426272921546117e+00  7.1426205610616540e+00  7.1426136246783516e+00  7.1426064771116504e+00  7.1425991122954002e+00  7.1425915239853550e+00  7.1425837057540349e+00  7.1425756509854219e+00  7.1425673528695066e+00  7.1425588043966792e+00  7.1425499983519556e+00  7.1425409273090237e+00  7.1425315836241330e+00  7.1425219594297964e+00  7.1425120466282932e+00  7.1425018368850210e+00  7.1424913216216108e+00  7.1424804920088709e+00  7.1424693389595157e+00  7.1424578531206784e+00  7.1424460248662127e+00  7.1424338442887700e+00  7.1424213011916375e+00  7.1424083850803539e+00  7.1423950851540630e+00  7.1423813902966344e+00  7.1423672890675070e+00  7.1423527696922884e+00  7.1423378200530578e+00  7.1423224276783976e+00  7.1423065797331384e+00  7.1422902630078005e+00  7.1422734639077223e+00  7.1422561684418877e+00  7.1422383622114145e+00  7.1422200303977110e+00  7.1422011577502813e+00  7.1421817285741946e+00  7.1421617267171582e+00  7.1421411355562512e+00  7.1421199379842255e+00  7.1420981163954540e+00  7.1420756526714317e+00  7.1420525281658671e+00  7.1420287236893376e+00  7.1420042194935007e+00  7.1419789952548305e+00  7.1419530300578806e+00  7.1419263023780752e+00  7.1418987900639639e+00  7.1418704703189846e+00  7.1418413196826718e+00  7.1418113140113206e+00  7.1417804284580946e+00  7.1417486374525190e+00  7.1417159146794003e+00  7.1416822330571019e+00  7.1416475647152096e+00  7.1416118809715057e+00  7.1415751523082838e+00  7.1415373483479687e+00  7.1414984378279920e+00  7.1414583885749554e+00  7.1414171674780151e+00  7.1413747404614751e+00  7.1413310724565893e+00  7.1412861273724930e+00  7.1412398680663154e+00  7.1411922563123733e+00  7.1411432527704699e+00  7.1410928169532397e+00  7.1410409071925276e+00  7.1409874806047799e+00  7.1409324930553826e+00  7.1408758991219559e+00  7.1408176520565485e+00  7.1407577037467016e+00  7.1406960046753563e+00  7.1406325038795595e+00  7.1405671489079374e+00  7.1404998857769009e+00  7.1404306589255269e+00  7.1403594111691024e+00  7.1402860836512554e+00  7.1402106157946790e+00  7.1401329452503433e+00  7.1400530078452054e+00  7.1399707375283246e+00  7.1398860663153663e+00  7.1397989242314361e+00  7.1397092392521717e+00  7.1396169372430727e+00  7.1395219418969953e+00  7.1394241746697356e+00  7.1393235547136795e+00  7.1392199988094349e+00  7.1391134212953933e+00  7.1390037339951364e+00  7.1388908461426501e+00  7.1387746643052523e+00  7.1386550923041705e+00  7.1385320311327156e+00  7.1384053788719077e+00  7.1382750306035874e+00  7.1381408783208018e+00  7.1380028108355011e+00  7.1378607136833594e+00  7.1377144690256875e+00  7.1375639555483463e+00  7.1374090483575046e+00  7.1372496188722403e+00  7.1370855347137834e+00  7.1369166595913516e+00  7.1367428531844554e+00  7.1365639710215607e+00  7.1363798643549812e+00  7.1361903800319029e+00  7.1359953603613775e+00  7.1357946429771983e+00  7.1355880606964881e+00  7.1353754413738875e+00  7.1351566077511874e+00  7.1349313773022534e+00  7.1346995620731022e+00  7.1344609685169571e+00  7.1342153973241462e+00  7.1339626432466279e+00  7.1337024949170189e+00  7.1334347346619067e+00  7.1331591383092992e+00  7.1328754749899437e+00  7.1325835069324315e+00  7.1322829892517650e+00  7.1319736697312459e+00  7.1316552885974422e+00  7.1313275782880075e+00  7.1309902632121007e+00  7.1306430595032104e+00  7.1302856747640524e+00  7.1299178078033707e+00  7.1295391483643060e+00  7.1291493768440759e+00  7.1287481640046870e+00  7.1283351706743483e+00  7.1279100474393422e+00  7.1274724343259654e+00  7.1270219604722396e+00  7.1265582437890709e+00  7.1260808906104671e+00  7.1255894953325063e+00  7.1250836400405850e+00  7.1245628941246970e+00  7.1240268138822032e+00  7.1234749421077659e+00  7.1229068076699882e+00  7.1223219250743277e+00  7.1217197940118275e+00  7.1210998988931644e+00  7.1204617083675767e+00  7.1198046748261312e+00  7.1191282338888326e+00  7.1184318038750023e+00  7.1177147852564362e+00  7.1169765600927137e+00  7.1162164914480881e+00  7.1154339227893457e+00  7.1146281773640396e+00  7.1137985575583880e+00  7.1129443442342231e+00  7.1120647960442733e+00  7.1111591487250969e+00  7.1102266143668924e+00  7.1092663806594798e+00  7.1082776101136327e+00  7.1072594392570068e+00  7.1062109778038005e+00  7.1051313077973228e+00  7.1040194827245688e+00  7.1028745266019762e+00  7.1016954330313329e+00  7.1004811642249832e+00  7.0992306499992957e+00  7.0979427867354241e+00  7.0966164363063138e+00  7.0952504249689081e+00  7.0938435422204646e+00  7.0923945396178754e+00  7.0909021295588355e+00  7.0893649840237387e+00  7.0877817332770174e+00  7.0861509645268113e+00  7.0844712205416336e+00  7.0827409982227874e+00  7.0809587471312190e+00  7.0791228679674969e+00  7.0772317110035221e+00  7.0752835744646223e+00  7.0732767028605883e+00  7.0712092852642634e+00  7.0690794535361752e+00  7.0668852804937918e+00  7.0646247780238820e+00  7.0622958951364510e+00  7.0598965159587577e+00  7.0574244576678584e+00  7.0548774683601136e+00  7.0522532248561216e+00  7.0495493304395112e+00  7.0467633125279967e+00  7.0438926202752050e+00  7.0409346221016369e+00  7.0378866031533081e+00  7.0347457626864678e+00  7.0315092113769690e+00  7.0281739685527640e+00  7.0247369593481590e+00  7.0211950117783894e+00  7.0175448537332157e+00  7.0137831098882959e+00  7.0099062985330907e+00  7.0059108283142741e+00  7.0017929948935809e+00  6.9975489775192443e+00  6.9931748355102208e+00  6.9886665046526328e+00  6.9840197935079029e+00  6.9792303796323472e+00  6.9742938057081068e+00  6.9692054755855777e+00  6.9639606502376727e+00  6.9585544436266300e+00  6.9529818184842531e+00  6.9472375820068599e+00  6.9413163814666019e+00  6.9352126997411432e+00  6.9289208507641629e+00  6.9224349748996206e+00  6.9157490342431949e+00  6.9088568078549342e+00  6.9017518869276646e+00  6.8944276698965457e+00  6.8868773574956546e+00  6.8790939477684665e+00  6.8710702310398544e+00  6.8627987848581409e+00  6.8542719689168354e+00  6.8454819199666437e+00  6.8364205467296033e+00  6.8270795248284681e+00  6.8174502917457191e+00  6.8075240418282