<?xml version="1.0"?>
<VTKFile type="UnstructuredGrid"  version="0.1"  >
<UnstructuredGrid>
<Piece  NumberOfPoints="1001" NumberOfCells="1000">
<Points>
<DataArray  type="Float64"  NumberOfComponents="3"  format="ascii">0 0 0  0.001 0 0  0.002 0 0  0.003 0 0  0.004 0 0  0.005 0 0  0.006 0 0  0.007 0 0  0.008 0 0  0.008999999999999999 0 0  0.01 0 0  0.011 0 0  0.012 0 0  0.013 0 0  0.014 0 0  0.015 0 0  0.016 0 0  0.017 0 0  0.018 0 0  0.019 0 0  0.02 0 0  0.021 0 0  0.022 0 0  0.023 0 0  0.024 0 0  0.025 0 0  0.026 0 0  0.027 0 0  0.028 0 0  0.029 0 0  0.03 0 0  0.031 0 0  0.032 0 0  0.033 0 0  0.034 0 0  0.035 0 0  0.036 0 0  0.037 0 0  0.038 0 0  0.039 0 0  0.04 0 0  0.041 0 0  0.042 0 0  0.043 0 0  0.044 0 0  0.045 0 0  0.046 0 0  0.047 0 0  0.048 0 0  0.049 0 0  0.05 0 0  0.051 0 0  0.052 0 0  0.053 0 0  0.054 0 0  0.055 0 0  0.056 0 0  0.057 0 0  0.058 0 0  0.059 0 0  0.06 0 0  0.061 0 0  0.062 0 0  0.063 0 0  0.064 0 0  0.065 0 0  0.066 0 0  0.067 0 0  0.068 0 0  0.06900000000000001 0 0  0.07000000000000001 0 0  0.07099999999999999 0 0  0.07199999999999999 0 0  0.073 0 0  0.074 0 0  0.075 0 0  0.076 0 0  0.077 0 0  0.078 0 0  0.079 0 0  0.08 0 0  0.081 0 0  0.082 0 0  0.083 0 0  0.08400000000000001 0 0  0.08500000000000001 0 0  0.08599999999999999 0 0  0.08699999999999999 0 0  0.08799999999999999 0 0  0.089 0 0  0.09 0 0  0.091 0 0  0.092 0 0  0.093 0 0  0.094 0 0  0.095 0 0  0.096 0 0  0.097 0 0  0.098 0 0  0.099 0 0  0.1 0 0  0.101 0 0  0.102 0 0  0.103 0 0  0.104 0 0  0.105 0 0  0.106 0 0  0.107 0 0  0.108 0 0  0.109 0 0  0.11 0 0  0.111 0 0  0.112 0 0  0.113 0 0  0.114 0 0  0.115 0 0  0.116 0 0  0.117 0 0  0.118 0 0  0.119 0 0  0.12 0 0  0.121 0 0  0.122 0 0  0.123 0 0  0.124 0 0  0.125 0 0  0.126 0 0  0.127 0 0  0.128 0 0  0.129 0 0  0.13 0 0  0.131 0 0  0.132 0 0  0.133 0 0  0.134 0 0  0.135 0 0  0.136 0 0  0.137 0 0  0.138 0 0  0.139 0 0  0.14 0 0  0.141 0 0  0.142 0 0  0.143 0 0  0.144 0 0  0.145 0 0  0.146 0 0  0.147 0 0  0.148 0 0  0.149 0 0  0.15 0 0  0.151 0 0  0.152 0 0  0.153 0 0  0.154 0 0  0.155 0 0  0.156 0 0  0.157 0 0  0.158 0 0  0.159 0 0  0.16 0 0  0.161 0 0  0.162 0 0  0.163 0 0  0.164 0 0  0.165 0 0  0.166 0 0  0.167 0 0  0.168 0 0  0.169 0 0  0.17 0 0  0.171 0 0  0.172 0 0  0.173 0 0  0.174 0 0  0.175 0 0  0.176 0 0  0.177 0 0  0.178 0 0  0.179 0 0  0.18 0 0  0.181 0 0  0.182 0 0  0.183 0 0  0.184 0 0  0.185 0 0  0.186 0 0  0.187 0 0  0.188 0 0  0.189 0 0  0.19 0 0  0.191 0 0  0.192 0 0  0.193 0 0  0.194 0 0  0.195 0 0  0.196 0 0  0.197 0 0  0.198 0 0  0.199 0 0  0.2 0 0  0.201 0 0  0.202 0 0  0.203 0 0  0.204 0 0  0.205 0 0  0.206 0 0  0.207 0 0  0.208 0 0  0.209 0 0  0.21 0 0  0.211 0 0  0.212 0 0  0.213 0 0  0.214 0 0  0.215 0 0  0.216 0 0  0.217 0 0  0.218 0 0  0.219 0 0  0.22 0 0  0.221 0 0  0.222 0 0  0.223 0 0  0.224 0 0  0.225 0 0  0.226 0 0  0.227 0 0  0.228 0 0  0.229 0 0  0.23 0 0  0.231 0 0  0.232 0 0  0.233 0 0  0.234 0 0  0.235 0 0  0.236 0 0  0.237 0 0  0.238 0 0  0.239 0 0  0.24 0 0  0.241 0 0  0.242 0 0  0.243 0 0  0.244 0 0  0.245 0 0  0.246 0 0  0.247 0 0  0.248 0 0  0.249 0 0  0.25 0 0  0.251 0 0  0.252 0 0  0.253 0 0  0.254 0 0  0.255 0 0  0.256 0 0  0.257 0 0  0.258 0 0  0.259 0 0  0.26 0 0  0.261 0 0  0.262 0 0  0.263 0 0  0.264 0 0  0.265 0 0  0.266 0 0  0.267 0 0  0.268 0 0  0.269 0 0  0.27 0 0  0.271 0 0  0.272 0 0  0.273 0 0  0.274 0 0  0.275 0 0  0.276 0 0  0.277 0 0  0.278 0 0  0.279 0 0  0.28 0 0  0.281 0 0  0.282 0 0  0.283 0 0  0.284 0 0  0.285 0 0  0.286 0 0  0.287 0 0  0.288 0 0  0.289 0 0  0.29 0 0  0.291 0 0  0.292 0 0  0.293 0 0  0.294 0 0  0.295 0 0  0.296 0 0  0.297 0 0  0.298 0 0  0.299 0 0  0.3 0 0  0.301 0 0  0.302 0 0  0.303 0 0  0.304 0 0  0.305 0 0  0.306 0 0  0.307 0 0  0.308 0 0  0.309 0 0  0.31 0 0  0.311 0 0  0.312 0 0  0.313 0 0  0.314 0 0  0.315 0 0  0.316 0 0  0.317 0 0  0.318 0 0  0.319 0 0  0.32 0 0  0.321 0 0  0.322 0 0  0.323 0 0  0.324 0 0  0.325 0 0  0.326 0 0  0.327 0 0  0.328 0 0  0.329 0 0  0.33 0 0  0.331 0 0  0.332 0 0  0.333 0 0  0.334 0 0  0.335 0 0  0.336 0 0  0.337 0 0  0.338 0 0  0.339 0 0  0.34 0 0  0.341 0 0  0.342 0 0  0.343 0 0  0.344 0 0  0.345 0 0  0.346 0 0  0.347 0 0  0.348 0 0  0.349 0 0  0.35 0 0  0.351 0 0  0.352 0 0  0.353 0 0  0.354 0 0  0.355 0 0  0.356 0 0  0.357 0 0  0.358 0 0  0.359 0 0  0.36 0 0  0.361 0 0  0.362 0 0  0.363 0 0  0.364 0 0  0.365 0 0  0.366 0 0  0.367 0 0  0.368 0 0  0.369 0 0  0.37 0 0  0.371 0 0  0.372 0 0  0.373 0 0  0.374 0 0  0.375 0 0  0.376 0 0  0.377 0 0  0.378 0 0  0.379 0 0  0.38 0 0  0.381 0 0  0.382 0 0  0.383 0 0  0.384 0 0  0.385 0 0  0.386 0 0  0.387 0 0  0.388 0 0  0.389 0 0  0.39 0 0  0.391 0 0  0.392 0 0  0.393 0 0  0.394 0 0  0.395 0 0  0.396 0 0  0.397 0 0  0.398 0 0  0.399 0 0  0.4 0 0  0.401 0 0  0.402 0 0  0.403 0 0  0.404 0 0  0.405 0 0  0.406 0 0  0.407 0 0  0.408 0 0  0.409 0 0  0.41 0 0  0.411 0 0  0.412 0 0  0.413 0 0  0.414 0 0  0.415 0 0  0.416 0 0  0.417 0 0  0.418 0 0  0.419 0 0  0.42 0 0  0.421 0 0  0.422 0 0  0.423 0 0  0.424 0 0  0.425 0 0  0.426 0 0  0.427 0 0  0.428 0 0  0.429 0 0  0.43 0 0  0.431 0 0  0.432 0 0  0.433 0 0  0.434 0 0  0.435 0 0  0.436 0 0  0.437 0 0  0.438 0 0  0.439 0 0  0.44 0 0  0.441 0 0  0.442 0 0  0.443 0 0  0.444 0 0  0.445 0 0  0.446 0 0  0.447 0 0  0.448 0 0  0.449 0 0  0.45 0 0  0.451 0 0  0.452 0 0  0.453 0 0  0.454 0 0  0.455 0 0  0.456 0 0  0.457 0 0  0.458 0 0  0.459 0 0  0.46 0 0  0.461 0 0  0.462 0 0  0.463 0 0  0.464 0 0  0.465 0 0  0.466 0 0  0.467 0 0  0.468 0 0  0.469 0 0  0.47 0 0  0.471 0 0  0.472 0 0  0.473 0 0  0.474 0 0  0.475 0 0  0.476 0 0  0.477 0 0  0.478 0 0  0.479 0 0  0.48 0 0  0.481 0 0  0.482 0 0  0.483 0 0  0.484 0 0  0.485 0 0  0.486 0 0  0.487 0 0  0.488 0 0  0.489 0 0  0.49 0 0  0.491 0 0  0.492 0 0  0.493 0 0  0.494 0 0  0.495 0 0  0.496 0 0  0.497 0 0  0.498 0 0  0.499 0 0  0.5 0 0  0.501 0 0  0.502 0 0  0.503 0 0  0.504 0 0  0.505 0 0  0.506 0 0  0.507 0 0  0.508 0 0  0.509 0 0  0.51 0 0  0.511 0 0  0.512 0 0  0.513 0 0  0.514 0 0  0.515 0 0  0.516 0 0  0.517 0 0  0.518 0 0  0.519 0 0  0.52 0 0  0.521 0 0  0.522 0 0  0.523 0 0  0.524 0 0  0.525 0 0  0.526 0 0  0.527 0 0  0.528 0 0  0.529 0 0  0.53 0 0  0.531 0 0  0.532 0 0  0.533 0 0  0.534 0 0  0.535 0 0  0.536 0 0  0.537 0 0  0.538 0 0  0.539 0 0  0.54 0 0  0.541 0 0  0.542 0 0  0.543 0 0  0.544 0 0  0.545 0 0  0.546 0 0  0.547 0 0  0.548 0 0  0.549 0 0  0.55 0 0  0.551 0 0  0.552 0 0  0.553 0 0  0.554 0 0  0.555 0 0  0.556 0 0  0.5570000000000001 0 0  0.5580000000000001 0 0  0.5590000000000001 0 0  0.5600000000000001 0 0  0.5610000000000001 0 0  0.5620000000000001 0 0  0.5629999999999999 0 0  0.5639999999999999 0 0  0.5649999999999999 0 0  0.5659999999999999 0 0  0.5669999999999999 0 0  0.5679999999999999 0 0  0.569 0 0  0.57 0 0  0.571 0 0  0.572 0 0  0.573 0 0  0.574 0 0  0.575 0 0  0.576 0 0  0.577 0 0  0.578 0 0  0.579 0 0  0.58 0 0  0.581 0 0  0.582 0 0  0.583 0 0  0.584 0 0  0.585 0 0  0.586 0 0  0.587 0 0  0.588 0 0  0.589 0 0  0.59 0 0  0.591 0 0  0.592 0 0  0.593 0 0  0.594 0 0  0.595 0 0  0.596 0 0  0.597 0 0  0.598 0 0  0.599 0 0  0.6 0 0  0.601 0 0  0.602 0 0  0.603 0 0  0.604 0 0  0.605 0 0  0.606 0 0  0.607 0 0  0.608 0 0  0.609 0 0  0.61 0 0  0.611 0 0  0.612 0 0  0.613 0 0  0.614 0 0  0.615 0 0  0.616 0 0  0.617 0 0  0.618 0 0  0.619 0 0  0.62 0 0  0.621 0 0  0.622 0 0  0.623 0 0  0.624 0 0  0.625 0 0  0.626 0 0  0.627 0 0  0.628 0 0  0.629 0 0  0.63 0 0  0.631 0 0  0.632 0 0  0.633 0 0  0.634 0 0  0.635 0 0  0.636 0 0  0.637 0 0  0.638 0 0  0.639 0 0  0.64 0 0  0.641 0 0  0.642 0 0  0.643 0 0  0.644 0 0  0.645 0 0  0.646 0 0  0.647 0 0  0.648 0 0  0.649 0 0  0.65 0 0  0.651 0 0  0.652 0 0  0.653 0 0  0.654 0 0  0.655 0 0  0.656 0 0  0.657 0 0  0.658 0 0  0.659 0 0  0.66 0 0  0.661 0 0  0.662 0 0  0.663 0 0  0.664 0 0  0.665 0 0  0.666 0 0  0.667 0 0  0.668 0 0  0.669 0 0  0.67 0 0  0.671 0 0  0.672 0 0  0.673 0 0  0.674 0 0  0.675 0 0  0.676 0 0  0.677 0 0  0.678 0 0  0.679 0 0  0.68 0 0  0.681 0 0  0.6820000000000001 0 0  0.6830000000000001 0 0  0.6840000000000001 0 0  0.6850000000000001 0 0  0.6860000000000001 0 0  0.6870000000000001 0 0  0.6879999999999999 0 0  0.6889999999999999 0 0  0.6899999999999999 0 0  0.6909999999999999 0 0  0.6919999999999999 0 0  0.6929999999999999 0 0  0.694 0 0  0.695 0 0  0.696 0 0  0.697 0 0  0.698 0 0  0.699 0 0  0.7 0 0  0.701 0 0  0.702 0 0  0.703 0 0  0.704 0 0  0.705 0 0  0.706 0 0  0.707 0 0  0.708 0 0  0.709 0 0  0.71 0 0  0.711 0 0  0.712 0 0  0.713 0 0  0.714 0 0  0.715 0 0  0.716 0 0  0.717 0 0  0.718 0 0  0.719 0 0  0.72 0 0  0.721 0 0  0.722 0 0  0.723 0 0  0.724 0 0  0.725 0 0  0.726 0 0  0.727 0 0  0.728 0 0  0.729 0 0  0.73 0 0  0.731 0 0  0.732 0 0  0.733 0 0  0.734 0 0  0.735 0 0  0.736 0 0  0.737 0 0  0.738 0 0  0.739 0 0  0.74 0 0  0.741 0 0  0.742 0 0  0.743 0 0  0.744 0 0  0.745 0 0  0.746 0 0  0.747 0 0  0.748 0 0  0.749 0 0  0.75 0 0  0.751 0 0  0.752 0 0  0.753 0 0  0.754 0 0  0.755 0 0  0.756 0 0  0.757 0 0  0.758 0 0  0.759 0 0  0.76 0 0  0.761 0 0  0.762 0 0  0.763 0 0  0.764 0 0  0.765 0 0  0.766 0 0  0.767 0 0  0.768 0 0  0.769 0 0  0.77 0 0  0.771 0 0  0.772 0 0  0.773 0 0  0.774 0 0  0.775 0 0  0.776 0 0  0.777 0 0  0.778 0 0  0.779 0 0  0.78 0 0  0.781 0 0  0.782 0 0  0.783 0 0  0.784 0 0  0.785 0 0  0.786 0 0  0.787 0 0  0.788 0 0  0.789 0 0  0.79 0 0  0.791 0 0  0.792 0 0  0.793 0 0  0.794 0 0  0.795 0 0  0.796 0 0  0.797 0 0  0.798 0 0  0.799 0 0  0.8 0 0  0.801 0 0  0.802 0 0  0.803 0 0  0.804 0 0  0.805 0 0  0.806 0 0  0.8070000000000001 0 0  0.8080000000000001 0 0  0.8090000000000001 0 0  0.8100000000000001 0 0  0.8110000000000001 0 0  0.8120000000000001 0 0  0.8129999999999999 0 0  0.8139999999999999 0 0  0.8149999999999999 0 0  0.8159999999999999 0 0  0.8169999999999999 0 0  0.8179999999999999 0 0  0.819 0 0  0.82 0 0  0.821 0 0  0.822 0 0  0.823 0 0  0.824 0 0  0.825 0 0  0.826 0 0  0.827 0 0  0.828 0 0  0.829 0 0  0.83 0 0  0.831 0 0  0.832 0 0  0.833 0 0  0.834 0 0  0.835 0 0  0.836 0 0  0.837 0 0  0.838 0 0  0.839 0 0  0.84 0 0  0.841 0 0  0
[...]
<PointData  Scalars="f_20-0"> 
<DataArray  type="Float64"  Name="f_20-0"  format="ascii">2.0003447657991438e+00  2.0003469490290353e+00  2.0003535237950802e+00  2.0003645655805040e+00  2.0003802010398637e+00  2.0004006092803253e+00  2.0004260236704501e+00  2.0004567341916317e+00  2.0004930903517564e+00  2.0005355046852267e+00  2.0005844568681863e+00  2.0006404984826176e+00  2.0007042584680055e+00  2.0007764493044529e+00  2.0008578739765306e+00  2.0009494337727847e+00  2.0010521369816900e+00  2.0011671085509244e+00  2.0012956007832381e+00  2.0014390051487698e+00  2.0015988653005570e+00  2.0017768913870748e+00  2.0019749757629728e+00  2.0021952102066796e+00  2.0024399047612280e+00  2.0027116083223757e+00  2.0030131311058730e+00  2.0033475691334277e+00  2.0037183308843671e+00  2.0041291662671510e+00  2.0045841980714885e+00  2.0050879560676345e+00  2.0056454139242814e+00  2.0062620291199269e+00  2.0069437860243293e+00  2.0076972423262642e+00  2.0085295789806428e+00  2.0094486538416088e+00  2.0104630591377406e+00  2.0115821829301610e+00  2.0128162746732174e+00  2.0141765149694071e+00  2.0156750895741733e+00  2.0173252676607696e+00  2.0191414842990354e+00  2.0211394270331198e+00  2.0233361263601668e+00  2.0257500498128125e+00  2.0284011992312858e+00  2.0313112106738833e+00  2.0345034562558793e+00  2.0380031470246927e+00  2.0418374357720572e+00  2.0460355184509655e+00  2.0506287326059884e+00  2.0556506509406689e+00  2.0611371678369039e+00  2.0671265763114532e+00  2.0736596325493073e+00  2.0807796047995373e+00  2.0885323030664780e+00  2.0969660856903505e+00  2.1061318386028574e+00  2.1160829227844720e+00  2.1268750852640137e+00  2.1385663289141821e+00  2.1512167363379273e+00  2.1648882433408638e+00  2.1796443578756644e+00  2.1955498209553181e+00  2.2126702068892437e+00  2.2310714613184683e+00  2.2508193769225140e+00  2.2719790083365199e+00  2.2946140297311950e+00  2.3187860406293184e+00  2.3445538277984634e+00  2.3719725933860811e+00  2.4010931617460849e+00  2.4319611795246692e+00  2.4646163253964799e+00  2.4990915472373052e+00  2.5354123453612911e+00  2.5735961206333435e+00  2.6136516057148449e+00  2.6555783963767814e+00  2.6993665977287318e+00  2.7449965974247981e+00  2.7924389745267590e+00  2.8416545488816496e+00  2.8925945717892714e+00  2.9452010545977814e+00  2.9994072278790238e+00  3.0551381201942478e+00  3.1123112423335790e+00  3.1708373604293931e+00  3.2306213395897507e+00  3.2915630387099011e+00  3.3535582368869905e+00  3.4164995723332456e+00  3.4802774757694337e+00  3.5447810818729737e+00  3.6098991043294211e+00  3.6755206622639447e+00  3.7415360481879030e+00  3.8078374299728823e+00  3.8743194816656370e+00  3.9408799401061576e+00  4.0074200862516376e+00  4.0738451518046759e+00  4.1400646531753988e+00  4.2059926559701726e+00  4.2715479741018978e+00  4.3366543082756692e+00  4.4012403290417748e+00  4.4652397098530603e+00  4.5285911156438301e+00  4.5912381523916590e+00  4.6531292829592958e+00  4.7142177142663559e+00  4.7744612605323997e+00  4.8338221869843787e+00  4.8922670380482769e+00  4.9497664536617352e+00  5.0062949769617271e+00  5.0618308562283110e+00  5.1163558436079191e+00  5.1698549928026267e+00  5.2223164575981302e+00  5.2737312928145572e+00  5.3240932590016143e+00  5.3733986319626732e+00  5.4216460179808061e+00  5.4688361754321502e+00  5.5149718433071602e+00  5.5600575770166714e+00  5.6040995917352152e+00  5.6471056134277999e+00  5.6890847376155191e+00  5.7300472958594888e+00  5.7700047298790320e+00  5.8089694731681867e+00  5.8469548399323408e+00  5.8839749211335262e+00  5.9200444874069387e+00  5.9551788985919432e+00  5.9893940196069426e+00  6.0227061423885528e+00  6.0551319136102899e+00  6.0866882678945053e+00  6.1173923662321714e+00  6.1472615393286825e+00  6.1763132355989923e+00  6.2045649735421131e+00  6.2320342982330308e+00  6.2587387416786866e+00  6.2846957867942850e+00  6.3099228347659766e+00  6.3344371755761628e+00  6.3582559614780569e+00  6.3813961832163981e+00  6.4038746488016063e+00  6.4257079646547313e+00  6.4469125189505672e+00  6.4675044669959494e+00  6.4874997184896834e+00  6.5069139265195686e+00  6.5257624781608268e+00  6.5440604865484815e+00  6.5618227843043959e+00  6.5790639182071677e+00  6.5957981450005221e+00  6.6120394282425519e+00  6.6278014361049635e+00  6.6430975400373953e+00  6.6579408142180139e+00  6.6723440357168959e+00  6.6863196853040678e+00  6.6998799488388840e+00  6.7130367191821021e+00  6.7258015985762514e+00  6.7381859014440701e+00  6.7502006575584659e+00  6.7618566155411131e+00  6.7731642466500519e+00  6.7841337488198512e+00  6.7947750509207099e+00  6.8050978172056631e+00  6.8151114519175389e+00  6.8248251040297090e+00  6.8342476720967973e+00  6.8433878091936604e+00  6.8522539279227299e+00  6.8608542054716857e+00  6.8691965887049360e+00  6.8772887992740568e+00  6.8851383387335785e+00  6.8927524936499331e+00  6.9001383406925587e+00  6.9073027516971921e+00  6.9142523986925672e+00  6.9209937588824753e+00  6.9275331195762764e+00  6.9338765830614957e+00  6.9400300714131244e+00  6.9459993312347139e+00  6.9517899383271677e+00  6.9574073022816005e+00  6.9628566709931752e+00  6.9681431350933885e+00  6.9732716322985944e+00  6.9782469516730945e+00  6.9830737378054017e+00  6.9877564948966571e+00  6.9922995907604770e+00  6.9967072607337828e+00  7.0009836114984569e+00  7.0051326248138057e+00  7.0091581611601184e+00  7.0130639632937291e+00  7.0168536597141626e+00  7.0205307680441367e+00  7.0240986983232503e+00  7.0275607562163636e+00  7.0309201461377544e+00  7.0341799742922468e+00  7.0373432516345167e+00  7.0404128967479567e+00  7.0433917386444387e+00  7.0462825194864260e+00  7.0490878972328810e+00  7.0518104482104924e+00  7.0544526696117531e+00  7.0570169819213735e+00  7.0595057312727159e+00  7.0619211917356743e+00  7.0642655675376949e+00  7.0665409952194329e+00  7.0687495457266509e+00  7.0708932264399440e+00  7.0729739831437719e+00  7.0749937019364424e+00  7.0769542110824730e+00  7.0788572828089240e+00  7.0807046350471037e+00  7.0824979331212194e+00  7.0842387913853306e+00  7.0859287748100739e+00  7.0875694005205574e+00  7.0891621392867705e+00  7.0907084169678889e+00  7.0922096159117753e+00  7.0936670763109797e+00  7.0950820975164879e+00  7.0964559393104905e+00  7.0977898231393279e+00  7.0990849333078545e+00  7.1003424181363330e+00  7.1015633910809886e+00  7.1027489318193426e+00  7.1039000873013682e+00  7.1050178727675393e+00  7.1061032727347468e+00  7.1071572419511115e+00  7.1081807063206384e+00  7.1091745637986374e+00  7.1101396852588277e+00  7.1110769153330180e+00  7.1119870732242036e+00  7.1128709534939283e+00  7.1137293268247195e+00  7.1145629407583719e+00  7.1153725204108600e+00  7.1161587691646098e+00  7.1169223693388428e+00  7.1176639828387085e+00  7.1183842517838531e+00  7.1190837991171270e+00  7.1197632291939978e+00  7.1204231283533588e+00  7.1210640654702679e+00  7.1216865924912476e+00  7.1222912449526588e+00  7.1228785424827263e+00  7.1234489892877351e+00  7.1240030746228822e+00  7.1245412732483198e+00  7.1250640458708210e+00  7.1255718395715792e+00  7.1260650882205407e+00  7.1265442128777234e+00  7.1270096221819754e+00  7.1274617127275111e+00  7.1279008694286645e+00  7.1283274658732481e+00  7.1287418646648364e+00  7.1291444177543717e+00  7.1295354667614372e+00  7.1299153432854876e+00  7.1302843692074234e+00  7.1306428569817495e+00  7.1309911099196794e+00  7.1313294224634634e+00  7.1316580804521683e+00  7.1319773613792785e+00  7.1322875346422849e+00  7.1325888617845958e+00  7.1328815967299626e+00  7.1331659860096712e+00  7.1334422689827637e+00  7.1337106780494688e+00  7.1339714388580662e+00  7.1342247705054458e+00  7.1344708857314467e+00  7.1347099911073295e+00  7.1349422872184256e+00  7.1351679688412428e+00  7.1353872251151396e+00  7.1356002397087988e+00  7.1358071909816116e+00  7.1360082521401713e+00  7.1362035913900073e+00  7.1363933720827264e+00  7.1365777528586847e+00  7.1367568877853520e+00  7.1369309264914964e+00  7.1371000142973200e+00  7.1372642923406593e+00  7.1374238976993993e+00  7.1375789635102009e+00  7.1377296190836628e+00  7.1378759900160187e+00  7.1380181982974946e+00  7.1381563624174316e+00  7.1382905974662405e+00  7.1384210152343286e+00  7.1385477243080704e+00  7.1386708301629138e+00  7.1387904352537230e+00  7.1389066391024141e+00  7.1390195383830166e+00  7.1391292270041804e+00  7.1392357961892587e+00  7.1393393345540019e+00  7.1394399281819636e+00  7.1395376606976715e+00  7.1396326133376462e+00  7.1397248650193150e+00  7.1398144924078943e+00  7.1399015699813146e+00  7.1399861700932163e+00  7.1400683630341133e+00  7.1401482170907498e+00  7.1402257986037192e+00  7.1403011720234009e+00  7.1403743999642391e+00  7.1404455432574521e+00  7.1405146610022037e+00  7.1405818106152612e+00  7.1406470478792174e+00  7.1407104269893154e+00  7.1407720005988793e+00  7.1408318198634682e+00  7.1408899344836945e+00  7.1409463927468400e+00  7.1410012415672410e+00  7.1410545265255108e+00  7.1411062919066230e+00  7.1411565807368884e+00  7.1412054348198728e+00  7.1412528947712479e+00  7.1412990000526841e+00  7.1413437890047113e+00  7.1413872988786649e+00  7.1414295658677016e+00  7.1414706251369218e+00  7.1415105108526191e+00  7.1415492562106913e+00  7.1415868934642424e+00  7.1416234539503884e+00  7.1416589681162694e+00  7.1416934655443578e+00  7.1417269749770069e+00  7.1417595243403120e+00  7.1417911407672765e+00  7.1418218506203246e+00  7.1418516795131657e+00  7.1418806523320386e+00  7.1419087932563388e+00  7.1419361257786678e+00  7.1419626727242953e+00  7.1419884562700844e+00  7.1420134979628642e+00  7.1420378187372808e+00  7.1420614389331458e+00  7.1420843783122825e+00  7.1421066560748976e+00  7.1421282908754833e+00  7.1421493008382768e+00  7.1421697035722653e+00  7.1421895161857716e+00  7.1422087553006355e+00  7.1422274370659711e+00  7.1422455771715532e+00  7.1422631908608105e+00  7.1422802929434610e+00  7.1422968978077721e+00  7.1423130194324891e+00  7.1423286713984231e+00  7.1423438668996919e+00  7.1423586187546650e+00  7.1423729394165889e+00  7.1423868409839066e+00  7.1424003352102803e+00  7.1424134335143510e+00  7.1424261469891794e+00  7.1424384864114687e+00  7.1424504622504816e+00  7.1424620846767315e+00  7.1424733635703985e+00  7.1424843085295366e+00  7.1424949288780120e+00  7.1425052336732495e+00  7.1425152317137179e+00  7.1425249315462329e+00  7.1425343414730289e+00  7.1425434695586318e+00  7.1425523236365356e+00  7.1425609113156794e+00  7.1425692399867371e+00  7.1425773168282261e+00  7.1425851488124295e+00  7.1425927427111509e+00  7.1426001051012928e+00  7.1426072423702616e+00  7.1426141607212266e+00  7.1426208661782153e+00  7.1426273645910365e+00  7.1426336616400823e+00  7.1426397628409575e+00  7.1426456735489792e+00  7.1426513989635225e+00  7.1426569441322494e+00  7.1426623139551779e+00  7.1426675131886501e+00  7.1426725464491367e+00  7.1426774182169472e+00  7.1426821328398020e+00  7.1426866945362839e+00  7.1426911073991866e+00  7.1426953753987288e+00  7.1426995023856747e+00  7.1427034920943298e+00  7.1427073481454455e+00  7.1427110740490019e+00  7.1427146732069104e+00  7.1427181489155966e+00  7.1427215043684908e+00  7.1427247426584364e+00  7.1427278667799889e+00  7.1427308796316407e+00  7.1427337840179383e+00  7.1427365826515326e+00  7.1427392781551378e+00  7.1427418730634109e+00  7.1427443698247446e+00  7.1427467708029919e+00  7.1427490782791230e+00  7.1427512944527791e+00  7.1427534214437980e+00  7.1427554612936346e+00  7.1427574159667371e+00  7.1427592873518524e+00  7.1427610772632582e+00  7.1427627874419555e+00  7.1427644195567837e+00  7.1427659752054824e+00  7.1427674559157088e+00  7.1427688631459851e+00  7.1427701982866107e+00  7.1427714626605123e+00  7.1427726575240360e+00  7.1427737840677255e+00  7.1427748434170226e+00  7.1427758366329295e+00  7.1427767647126421e+00  7.1427776285901139e+00  7.1427784291366168e+00  7.1427791671612271e+00  7.1427798434112910e+00  7.1427804585728465e+00  7.1427810132710139e+00  7.1427815080703363e+00  7.1427819434751045e+00  7.1427823199296299e+00  7.1427826378184891e+00  7.1427828974667396e+00  7.1427830991400967e+00  7.1427832430450815e+00  7.1427833293291219e+00  7.1427833580806448e+00  7.1427833293291210e+00  7.1427832430450815e+00  7.1427830991400985e+00  7.1427828974667396e+00  7.1427826378184873e+00  7.1427823199296281e+00  7.1427819434751045e+00  7.1427815080703372e+00  7.1427810132710130e+00  7.1427804585728483e+00  7.1427798434112910e+00  7.1427791671612262e+00  7.1427784291366168e+00  7.1427776285901139e+00  7.1427767647126403e+00  7.1427758366329295e+00  7.1427748434170217e+00  7.1427737840677237e+00  7.1427726575240307e+00  7.1427714626605061e+00  7.1427701982866081e+00  7.1427688631459816e+00  7.1427674559157053e+00  7.1427659752054806e+00  7.1427644195567828e+00  7.1427627874419555e+00  7.1427610772632582e+00  7.1427592873518506e+00  7.1427574159667362e+00  7.1427554612936337e+00  7.1427534214437962e+00  7.1427512944527782e+00  7.1427490782791230e+00  7.1427467708029964e+00  7.1427443698247464e+00  7.1427418730634109e+00  7.1427392781551386e+00  7.1427365826515326e+00  7.1427337840179375e+00  7.1427308796316407e+00  7.1427278667799889e+00  7.1427247426584346e+00  7.1427215043684891e+00  7.1427181489155958e+00  7.1427146732069104e+00  7.1427110740490001e+00  7.1427073481454411e+00  7.1427034920943253e+00  7.1426995023856703e+00  7.1426953753987261e+00  7.1426911073991848e+00  7.1426866945362804e+00  7.1426821328397976e+00  7.1426774182169464e+00  7.1426725464491359e+00  7.1426675131886492e+00  7.1426623139551761e+00  7.1426569441322458e+00  7.1426513989635199e+00  7.1426456735489756e+00  7.1426397628409557e+00  7.1426336616400787e+00  7.1426273645910312e+00  7.1426208661782109e+00  7.1426141607212257e+00  7.1426072423702616e+00  7.1426001051012937e+00  7.1425927427111526e+00  7.1425851488124277e+00  7.1425773168282216e+00  7.1425692399867327e+00  7.1425609113156732e+00  7.1425523236365338e+00  7.1425434695586327e+00  7.1425343414730289e+00  7.1425249315462329e+00  7.1425152317137188e+00  7.1425052336732513e+00  7.1424949288780128e+00  7.1424843085295375e+00  7.1424733635704003e+00  7.1424620846767315e+00  7.1424504622504825e+00  7.1424384864114678e+00  7.1424261469891777e+00  7.1424134335143501e+00  7.1424003352102803e+00  7.1423868409839049e+00  7.1423729394165889e+00  7.1423586187546642e+00  7.1423438668996901e+00  7.1423286713984222e+00  7.1423130194324909e+00  7.1422968978077730e+00  7.1422802929434610e+00  7.1422631908608079e+00  7.1422455771715478e+00  7.1422274370659675e+00  7.1422087553006319e+00  7.1421895161857716e+00  7.1421697035722644e+00  7.1421493008382768e+00  7.1421282908754842e+00  7.1421066560748967e+00  7.1420843783122816e+00  7.1420614389331449e+00  7.1420378187372799e+00  7.1420134979628651e+00  7.1419884562700862e+00  7.1419626727242980e+00  7.1419361257786695e+00  7.1419087932563423e+00  7.1418806523320395e+00  7.1418516795131639e+00  7.1418218506203246e+00  7.1417911407672774e+00  7.1417595243403129e+00  7.1417269749770087e+00  7.1416934655443587e+00  7.1416589681162685e+00  7.1416234539503858e+00  7.1415868934642424e+00  7.1415492562106886e+00  7.1415105108526156e+00  7.1414706251369235e+00  7.1414295658677025e+00  7.1413872988786666e+00  7.1413437890047122e+00  7.1412990000526868e+00  7.1412528947712497e+00  7.1412054348198719e+00  7.1411565807368884e+00  7.1411062919066222e+00  7.1410545265255108e+00  7.1410012415672419e+00  7.1409463927468417e+00  7.1408899344836980e+00  7.1408318198634708e+00  7.1407720005988820e+00  7.1407104269893145e+00  7.1406470478792174e+00  7.1405818106152603e+00  7.1405146610022063e+00  7.1404455432574547e+00  7.1403743999642408e+00  7.1403011720234018e+00  7.1402257986037210e+00  7.1401482170907480e+00  7.1400683630341106e+00  7.1399861700932155e+00  7.1399015699813138e+00  7.1398144924078943e+00  7.1397248650193159e+00  7.1396326133376444e+00  7.1395376606976679e+00  7.1394399281819627e+00  7.1393393345540028e+00  7.1392357961892614e+00  7.1391292270041848e+00  7.1390195383830184e+00  7.1389066391024150e+00  7.1387904352537213e+00  7.1386708301629120e+00  7.1385477243080686e+00  7.1384210152343268e+00  7.1382905974662387e+00  7.1381563624174298e+00  7.1380181982974928e+00  7.1378759900160178e+00  7.1377296190836637e+00  7.1375789635102009e+00  7.1374238976994002e+00  7.1372642923406566e+00  7.1371000142973191e+00  7.1369309264914964e+00  7.1367568877853502e+00  7.1365777528586811e+00  7.1363933720827246e+00  7.1362035913900055e+00  7.1360082521401651e+00  7.1358071909816081e+00  7.1356002397087970e+00  7.1353872251151396e+00  7.1351679688412428e+00  7.1349422872184256e+00  7.1347099911073277e+00  7.1344708857314467e+00  7.1342247705054467e+00  7.1339714388580706e+00  7.1337106780494697e+00  7.1334422689827663e+00  7.1331659860096739e+00  7.1328815967299652e+00  7.1325888617845967e+00  7.1322875346422858e+00  7.1319773613792776e+00  7.1316580804521683e+00  7.1313294224634634e+00  7.1309911099196803e+00  7.1306428569817495e+00  7.1302843692074234e+00  7.1299153432854885e+00  7.1295354667614372e+00  7.1291444177543708e+00  7.1287418646648355e+00  7.1283274658732481e+00  7.1279008694286645e+00  7.1274617127275111e+00  7.1270096221819754e+00  7.1265442128777252e+00  7.1260650882205416e+00  7.1255718395715792e+00  7.1250640458708210e+00  7.1245412732483198e+00  7.1240030746228831e+00  7.1234489892877360e+00  7.1228785424827290e+00  7.1222912449526596e+00  7.1216865924912485e+00  7.1210640654702688e+00  7.1204231283533606e+00  7.1197632291939978e+00  7.1190837991171243e+00  7.1183842517838505e+00  7.1176639828387032e+00  7.1169223693388393e+00  7.1161587691646062e+00  7.1153725204108573e+00  7.1145629407583701e+00  7.1137293268247195e+00  7.1128709534939292e+00  7.1119870732242072e+00  7.1110769153330198e+00  7.1101396852588277e+00  7.1091745637986357e+00  7.1081807063206366e+00  7.1071572419511089e+00  7.1061032727347451e+00  7.1050178727675393e+00  7.1039000873013682e+00  7.1027489318193435e+00  7.1015633910809886e+00  7.1003424181363348e+00  7.0990849333078554e+00  7.0977898231393297e+00  7.0964559393104905e+00  7.0950820975164905e+00  7.0936670763109824e+00  7.0922096159117771e+00  7.0907084169678907e+00  7.0891621392867741e+00  7.0875694005205618e+00  7.0859287748100765e+00  7.0842387913853315e+00  7.0824979331212194e+00  7.0807046350471046e+00  7.0788572828089240e+00  7.0769542110824739e+00  7.0749937019364397e+00  7.0729739831437684e+00  7.0708932264399396e+00  7.0687495457266509e+00  7.0665409952194320e+00  7.0642655675376975e+00  7.0619211917356788e+00  7.0595057312727167e+00  7.0570169819213744e+00  7.0544526696117522e+00  7.0518104482104942e+00  7.0490878972328819e+00  7.0462825194864251e+00  7.0433917386444387e+00  7.0404128967479540e+00  7.0373432516345158e+00  7.0341799742922468e+00  7.0309201461377553e+00  7.0275607562163653e+00  7.0240986983232547e+00  7.0205307680441384e+00  7.0168536597141635e+00  7.0130639632937291e+00  7.0091581611601184e+00  7.0051326248138039e+00  7.0009836114984543e+00  6.9967072607337819e+00  6.9922995907604770e+00  6.9877564948966606e+00  6.9830737378054035e+00  6.9782469516730954e+00  6.9732716322985970e+00  6.9681431350933911e+00  6.9628566709931770e+00  6.9574073022815996e+00  6.9517899383271686e+00  6.9459993312347157e+00  6.9400300714131289e+00  6.9338765830614983e+00  6.9275331195762755e+00  6.9209937588824753e+00  6.9142523986925690e+00  6.9073027516971983e+00  6.9001383406925614e+00  6.8927524936499376e+00  6.8851383387335821e+00  6.8772887992740630e+00  6.8691965887049395e+00  6.8608542054716875e+00  6.8522539279227317e+00  6.8433878091936613e+00  6.8342476720967973e+00  6.8248251040297090e+00  6.8151114519175371e+00  6.8050978172056631e+00  6.7947750509207108e+00  6.7841337488198530e+00  6.7731642466500528e+00  6.7618566155411113e+00  6.7502006575584641e+00  6.7381859014440684e+00  6.7258015985762523e+00  6.7130367191821030e+00  6.6998799488388840e+00  6.6863196853040670e+00  6.6723440357168959e+00  6.6579408142180121e+00  6.6430975400373953e+00  6.6278014361049635e+00  6.6120394282425545e+00  6.5957981450005