<?xml version="1.0"?>
<VTKFile type="UnstructuredGrid"  version="0.1"  >
<UnstructuredGrid>
<Piece  NumberOfPoints="1001" NumberOfCells="1000">
<Points>
<DataArray  type="Float64"  NumberOfComponents="3"  format="ascii">0 0 0  0.001 0 0  0.002 0 0  0.003 0 0  0.004 0 0  0.005 0 0  0.006 0 0  0.007 0 0  0.008 0 0  0.008999999999999999 0 0  0.01 0 0  0.011 0 0  0.012 0 0  0.013 0 0  0.014 0 0  0.015 0 0  0.016 0 0  0.017 0 0  0.018 0 0  0.019 0 0  0.02 0 0  0.021 0 0  0.022 0 0  0.023 0 0  0.024 0 0  0.025 0 0  0.026 0 0  0.027 0 0  0.028 0 0  0.029 0 0  0.03 0 0  0.031 0 0  0.032 0 0  0.033 0 0  0.034 0 0  0.035 0 0  0.036 0 0  0.037 0 0  0.038 0 0  0.039 0 0  0.04 0 0  0.041 0 0  0.042 0 0  0.043 0 0  0.044 0 0  0.045 0 0  0.046 0 0  0.047 0 0  0.048 0 0  0.049 0 0  0.05 0 0  0.051 0 0  0.052 0 0  0.053 0 0  0.054 0 0  0.055 0 0  0.056 0 0  0.057 0 0  0.058 0 0  0.059 0 0  0.06 0 0  0.061 0 0  0.062 0 0  0.063 0 0  0.064 0 0  0.065 0 0  0.066 0 0  0.067 0 0  0.068 0 0  0.06900000000000001 0 0  0.07000000000000001 0 0  0.07099999999999999 0 0  0.07199999999999999 0 0  0.073 0 0  0.074 0 0  0.075 0 0  0.076 0 0  0.077 0 0  0.078 0 0  0.079 0 0  0.08 0 0  0.081 0 0  0.082 0 0  0.083 0 0  0.08400000000000001 0 0  0.08500000000000001 0 0  0.08599999999999999 0 0  0.08699999999999999 0 0  0.08799999999999999 0 0  0.089 0 0  0.09 0 0  0.091 0 0  0.092 0 0  0.093 0 0  0.094 0 0  0.095 0 0  0.096 0 0  0.097 0 0  0.098 0 0  0.099 0 0  0.1 0 0  0.101 0 0  0.102 0 0  0.103 0 0  0.104 0 0  0.105 0 0  0.106 0 0  0.107 0 0  0.108 0 0  0.109 0 0  0.11 0 0  0.111 0 0  0.112 0 0  0.113 0 0  0.114 0 0  0.115 0 0  0.116 0 0  0.117 0 0  0.118 0 0  0.119 0 0  0.12 0 0  0.121 0 0  0.122 0 0  0.123 0 0  0.124 0 0  0.125 0 0  0.126 0 0  0.127 0 0  0.128 0 0  0.129 0 0  0.13 0 0  0.131 0 0  0.132 0 0  0.133 0 0  0.134 0 0  0.135 0 0  0.136 0 0  0.137 0 0  0.138 0 0  0.139 0 0  0.14 0 0  0.141 0 0  0.142 0 0  0.143 0 0  0.144 0 0  0.145 0 0  0.146 0 0  0.147 0 0  0.148 0 0  0.149 0 0  0.15 0 0  0.151 0 0  0.152 0 0  0.153 0 0  0.154 0 0  0.155 0 0  0.156 0 0  0.157 0 0  0.158 0 0  0.159 0 0  0.16 0 0  0.161 0 0  0.162 0 0  0.163 0 0  0.164 0 0  0.165 0 0  0.166 0 0  0.167 0 0  0.168 0 0  0.169 0 0  0.17 0 0  0.171 0 0  0.172 0 0  0.173 0 0  0.174 0 0  0.175 0 0  0.176 0 0  0.177 0 0  0.178 0 0  0.179 0 0  0.18 0 0  0.181 0 0  0.182 0 0  0.183 0 0  0.184 0 0  0.185 0 0  0.186 0 0  0.187 0 0  0.188 0 0  0.189 0 0  0.19 0 0  0.191 0 0  0.192 0 0  0.193 0 0  0.194 0 0  0.195 0 0  0.196 0 0  0.197 0 0  0.198 0 0  0.199 0 0  0.2 0 0  0.201 0 0  0.202 0 0  0.203 0 0  0.204 0 0  0.205 0 0  0.206 0 0  0.207 0 0  0.208 0 0  0.209 0 0  0.21 0 0  0.211 0 0  0.212 0 0  0.213 0 0  0.214 0 0  0.215 0 0  0.216 0 0  0.217 0 0  0.218 0 0  0.219 0 0  0.22 0 0  0.221 0 0  0.222 0 0  0.223 0 0  0.224 0 0  0.225 0 0  0.226 0 0  0.227 0 0  0.228 0 0  0.229 0 0  0.23 0 0  0.231 0 0  0.232 0 0  0.233 0 0  0.234 0 0  0.235 0 0  0.236 0 0  0.237 0 0  0.238 0 0  0.239 0 0  0.24 0 0  0.241 0 0  0.242 0 0  0.243 0 0  0.244 0 0  0.245 0 0  0.246 0 0  0.247 0 0  0.248 0 0  0.249 0 0  0.25 0 0  0.251 0 0  0.252 0 0  0.253 0 0  0.254 0 0  0.255 0 0  0.256 0 0  0.257 0 0  0.258 0 0  0.259 0 0  0.26 0 0  0.261 0 0  0.262 0 0  0.263 0 0  0.264 0 0  0.265 0 0  0.266 0 0  0.267 0 0  0.268 0 0  0.269 0 0  0.27 0 0  0.271 0 0  0.272 0 0  0.273 0 0  0.274 0 0  0.275 0 0  0.276 0 0  0.277 0 0  0.278 0 0  0.279 0 0  0.28 0 0  0.281 0 0  0.282 0 0  0.283 0 0  0.284 0 0  0.285 0 0  0.286 0 0  0.287 0 0  0.288 0 0  0.289 0 0  0.29 0 0  0.291 0 0  0.292 0 0  0.293 0 0  0.294 0 0  0.295 0 0  0.296 0 0  0.297 0 0  0.298 0 0  0.299 0 0  0.3 0 0  0.301 0 0  0.302 0 0  0.303 0 0  0.304 0 0  0.305 0 0  0.306 0 0  0.307 0 0  0.308 0 0  0.309 0 0  0.31 0 0  0.311 0 0  0.312 0 0  0.313 0 0  0.314 0 0  0.315 0 0  0.316 0 0  0.317 0 0  0.318 0 0  0.319 0 0  0.32 0 0  0.321 0 0  0.322 0 0  0.323 0 0  0.324 0 0  0.325 0 0  0.326 0 0  0.327 0 0  0.328 0 0  0.329 0 0  0.33 0 0  0.331 0 0  0.332 0 0  0.333 0 0  0.334 0 0  0.335 0 0  0.336 0 0  0.337 0 0  0.338 0 0  0.339 0 0  0.34 0 0  0.341 0 0  0.342 0 0  0.343 0 0  0.344 0 0  0.345 0 0  0.346 0 0  0.347 0 0  0.348 0 0  0.349 0 0  0.35 0 0  0.351 0 0  0.352 0 0  0.353 0 0  0.354 0 0  0.355 0 0  0.356 0 0  0.357 0 0  0.358 0 0  0.359 0 0  0.36 0 0  0.361 0 0  0.362 0 0  0.363 0 0  0.364 0 0  0.365 0 0  0.366 0 0  0.367 0 0  0.368 0 0  0.369 0 0  0.37 0 0  0.371 0 0  0.372 0 0  0.373 0 0  0.374 0 0  0.375 0 0  0.376 0 0  0.377 0 0  0.378 0 0  0.379 0 0  0.38 0 0  0.381 0 0  0.382 0 0  0.383 0 0  0.384 0 0  0.385 0 0  0.386 0 0  0.387 0 0  0.388 0 0  0.389 0 0  0.39 0 0  0.391 0 0  0.392 0 0  0.393 0 0  0.394 0 0  0.395 0 0  0.396 0 0  0.397 0 0  0.398 0 0  0.399 0 0  0.4 0 0  0.401 0 0  0.402 0 0  0.403 0 0  0.404 0 0  0.405 0 0  0.406 0 0  0.407 0 0  0.408 0 0  0.409 0 0  0.41 0 0  0.411 0 0  0.412 0 0  0.413 0 0  0.414 0 0  0.415 0 0  0.416 0 0  0.417 0 0  0.418 0 0  0.419 0 0  0.42 0 0  0.421 0 0  0.422 0 0  0.423 0 0  0.424 0 0  0.425 0 0  0.426 0 0  0.427 0 0  0.428 0 0  0.429 0 0  0.43 0 0  0.431 0 0  0.432 0 0  0.433 0 0  0.434 0 0  0.435 0 0  0.436 0 0  0.437 0 0  0.438 0 0  0.439 0 0  0.44 0 0  0.441 0 0  0.442 0 0  0.443 0 0  0.444 0 0  0.445 0 0  0.446 0 0  0.447 0 0  0.448 0 0  0.449 0 0  0.45 0 0  0.451 0 0  0.452 0 0  0.453 0 0  0.454 0 0  0.455 0 0  0.456 0 0  0.457 0 0  0.458 0 0  0.459 0 0  0.46 0 0  0.461 0 0  0.462 0 0  0.463 0 0  0.464 0 0  0.465 0 0  0.466 0 0  0.467 0 0  0.468 0 0  0.469 0 0  0.47 0 0  0.471 0 0  0.472 0 0  0.473 0 0  0.474 0 0  0.475 0 0  0.476 0 0  0.477 0 0  0.478 0 0  0.479 0 0  0.48 0 0  0.481 0 0  0.482 0 0  0.483 0 0  0.484 0 0  0.485 0 0  0.486 0 0  0.487 0 0  0.488 0 0  0.489 0 0  0.49 0 0  0.491 0 0  0.492 0 0  0.493 0 0  0.494 0 0  0.495 0 0  0.496 0 0  0.497 0 0  0.498 0 0  0.499 0 0  0.5 0 0  0.501 0 0  0.502 0 0  0.503 0 0  0.504 0 0  0.505 0 0  0.506 0 0  0.507 0 0  0.508 0 0  0.509 0 0  0.51 0 0  0.511 0 0  0.512 0 0  0.513 0 0  0.514 0 0  0.515 0 0  0.516 0 0  0.517 0 0  0.518 0 0  0.519 0 0  0.52 0 0  0.521 0 0  0.522 0 0  0.523 0 0  0.524 0 0  0.525 0 0  0.526 0 0  0.527 0 0  0.528 0 0  0.529 0 0  0.53 0 0  0.531 0 0  0.532 0 0  0.533 0 0  0.534 0 0  0.535 0 0  0.536 0 0  0.537 0 0  0.538 0 0  0.539 0 0  0.54 0 0  0.541 0 0  0.542 0 0  0.543 0 0  0.544 0 0  0.545 0 0  0.546 0 0  0.547 0 0  0.548 0 0  0.549 0 0  0.55 0 0  0.551 0 0  0.552 0 0  0.553 0 0  0.554 0 0  0.555 0 0  0.556 0 0  0.5570000000000001 0 0  0.5580000000000001 0 0  0.5590000000000001 0 0  0.5600000000000001 0 0  0.5610000000000001 0 0  0.5620000000000001 0 0  0.5629999999999999 0 0  0.5639999999999999 0 0  0.5649999999999999 0 0  0.5659999999999999 0 0  0.5669999999999999 0 0  0.5679999999999999 0 0  0.569 0 0  0.57 0 0  0.571 0 0  0.572 0 0  0.573 0 0  0.574 0 0  0.575 0 0  0.576 0 0  0.577 0 0  0.578 0 0  0.579 0 0  0.58 0 0  0.581 0 0  0.582 0 0  0.583 0 0  0.584 0 0  0.585 0 0  0.586 0 0  0.587 0 0  0.588 0 0  0.589 0 0  0.59 0 0  0.591 0 0  0.592 0 0  0.593 0 0  0.594 0 0  0.595 0 0  0.596 0 0  0.597 0 0  0.598 0 0  0.599 0 0  0.6 0 0  0.601 0 0  0.602 0 0  0.603 0 0  0.604 0 0  0.605 0 0  0.606 0 0  0.607 0 0  0.608 0 0  0.609 0 0  0.61 0 0  0.611 0 0  0.612 0 0  0.613 0 0  0.614 0 0  0.615 0 0  0.616 0 0  0.617 0 0  0.618 0 0  0.619 0 0  0.62 0 0  0.621 0 0  0.622 0 0  0.623 0 0  0.624 0 0  0.625 0 0  0.626 0 0  0.627 0 0  0.628 0 0  0.629 0 0  0.63 0 0  0.631 0 0  0.632 0 0  0.633 0 0  0.634 0 0  0.635 0 0  0.636 0 0  0.637 0 0  0.638 0 0  0.639 0 0  0.64 0 0  0.641 0 0  0.642 0 0  0.643 0 0  0.644 0 0  0.645 0 0  0.646 0 0  0.647 0 0  0.648 0 0  0.649 0 0  0.65 0 0  0.651 0 0  0.652 0 0  0.653 0 0  0.654 0 0  0.655 0 0  0.656 0 0  0.657 0 0  0.658 0 0  0.659 0 0  0.66 0 0  0.661 0 0  0.662 0 0  0.663 0 0  0.664 0 0  0.665 0 0  0.666 0 0  0.667 0 0  0.668 0 0  0.669 0 0  0.67 0 0  0.671 0 0  0.672 0 0  0.673 0 0  0.674 0 0  0.675 0 0  0.676 0 0  0.677 0 0  0.678 0 0  0.679 0 0  0.68 0 0  0.681 0 0  0.6820000000000001 0 0  0.6830000000000001 0 0  0.6840000000000001 0 0  0.6850000000000001 0 0  0.6860000000000001 0 0  0.6870000000000001 0 0  0.6879999999999999 0 0  0.6889999999999999 0 0  0.6899999999999999 0 0  0.6909999999999999 0 0  0.6919999999999999 0 0  0.6929999999999999 0 0  0.694 0 0  0.695 0 0  0.696 0 0  0.697 0 0  0.698 0 0  0.699 0 0  0.7 0 0  0.701 0 0  0.702 0 0  0.703 0 0  0.704 0 0  0.705 0 0  0.706 0 0  0.707 0 0  0.708 0 0  0.709 0 0  0.71 0 0  0.711 0 0  0.712 0 0  0.713 0 0  0.714 0 0  0.715 0 0  0.716 0 0  0.717 0 0  0.718 0 0  0.719 0 0  0.72 0 0  0.721 0 0  0.722 0 0  0.723 0 0  0.724 0 0  0.725 0 0  0.726 0 0  0.727 0 0  0.728 0 0  0.729 0 0  0.73 0 0  0.731 0 0  0.732 0 0  0.733 0 0  0.734 0 0  0.735 0 0  0.736 0 0  0.737 0 0  0.738 0 0  0.739 0 0  0.74 0 0  0.741 0 0  0.742 0 0  0.743 0 0  0.744 0 0  0.745 0 0  0.746 0 0  0.747 0 0  0.748 0 0  0.749 0 0  0.75 0 0  0.751 0 0  0.752 0 0  0.753 0 0  0.754 0 0  0.755 0 0  0.756 0 0  0.757 0 0  0.758 0 0  0.759 0 0  0.76 0 0  0.761 0 0  0.762 0 0  0.763 0 0  0.764 0 0  0.765 0 0  0.766 0 0  0.767 0 0  0.768 0 0  0.769 0 0  0.77 0 0  0.771 0 0  0.772 0 0  0.773 0 0  0.774 0 0  0.775 0 0  0.776 0 0  0.777 0 0  0.778 0 0  0.779 0 0  0.78 0 0  0.781 0 0  0.782 0 0  0.783 0 0  0.784 0 0  0.785 0 0  0.786 0 0  0.787 0 0  0.788 0 0  0.789 0 0  0.79 0 0  0.791 0 0  0.792 0 0  0.793 0 0  0.794 0 0  0.795 0 0  0.796 0 0  0.797 0 0  0.798 0 0  0.799 0 0  0.8 0 0  0.801 0 0  0.802 0 0  0.803 0 0  0.804 0 0  0.805 0 0  0.806 0 0  0.8070000000000001 0 0  0.8080000000000001 0 0  0.8090000000000001 0 0  0.8100000000000001 0 0  0.8110000000000001 0 0  0.8120000000000001 0 0  0.8129999999999999 0 0  0.8139999999999999 0 0  0.8149999999999999 0 0  0.8159999999999999 0 0  0.8169999999999999 0 0  0.8179999999999999 0 0  0.819 0 0  0.82 0 0  0.821 0 0  0.822 0 0  0.823 0 0  0.824 0 0  0.825 0 0  0.826 0 0  0.827 0 0  0.828 0 0  0.829 0 0  0.83 0 0  0.831 0 0  0.832 0 0  0.833 0 0  0.834 0 0  0.835 0 0  0.836 0 0  0.837 0 0  0.838 0 0  0.839 0 0  0.84 0 0  0.841 0 0  0
[...]
<PointData  Scalars="f_20-0"> 
<DataArray  type="Float64"  Name="f_20-0"  format="ascii">2.0000000000295564e+00  2.0000000000299356e+00  2.0000000000310831e+00  2.0000000000330251e+00  2.0000000000358091e+00  2.0000000000395031e+00  2.0000000000441962e+00  2.0000000000500013e+00  2.0000000000570597e+00  2.0000000000655400e+00  2.0000000000756435e+00  2.0000000000876108e+00  2.0000000001017257e+00  2.0000000001183236e+00  2.0000000001377938e+00  2.0000000001605951e+00  2.0000000001872573e+00  2.0000000002184013e+00  2.0000000002547500e+00  2.0000000002971401e+00  2.0000000003465437e+00  2.0000000004040892e+00  2.0000000004710876e+00  2.0000000005490528e+00  2.0000000006397420e+00  2.0000000007451892e+00  2.0000000008677490e+00  2.0000000010101426e+00  2.0000000011755201e+00  2.0000000013675185e+00  2.0000000015903443e+00  2.0000000018488531e+00  2.0000000021486541e+00  2.0000000024962201e+00  2.0000000028990179e+00  2.0000000033656602e+00  2.0000000039060755e+00  2.0000000045317075e+00  2.0000000052557363e+00  2.0000000060933463e+00  2.0000000070620145e+00  2.0000000081818521e+00  2.0000000094759969e+00  2.0000000109710521e+00  2.0000000126976025e+00  2.0000000146907890e+00  2.0000000169909820e+00  2.0000000196445309e+00  2.0000000227046395e+00  2.0000000262323558e+00  2.0000000302976964e+00  2.0000000349809404e+00  2.0000000403741014e+00  2.0000000465825933e+00  2.0000000537271512e+00  2.0000000619459954e+00  2.0000000713973112e+00  2.0000000822620629e+00  2.0000000947471968e+00  2.0000001090892847e+00  2.0000001255586639e+00  2.0000001444641411e+00  2.0000001661583324e+00  2.0000001910437311e+00  2.0000002195795887e+00  2.0000002522897233e+00  2.0000002897713669e+00  2.0000003327052052e+00  2.0000003818667436e+00  2.0000004381391805e+00  2.0000005025279832e+00  2.0000005761773814e+00  2.0000006603890208e+00  2.0000007566430589e+00  2.0000008666220048e+00  2.0000009922376529e+00  2.0000011356615004e+00  2.0000012993590763e+00  2.0000014861286886e+00  2.0000016991451157e+00  2.0000019420088657e+00  2.0000022188016953e+00  2.0000025341491412e+00  2.0000028932909357e+00  2.0000033021602559e+00  2.0000037674728817e+00  2.0000042968274578e+00  2.0000048988181991e+00  2.0000055831615180e+00  2.0000063608382437e+00  2.0000072442532697e+00  2.0000082474147098e+00  2.0000093861348347e+00  2.0000106782553493e+00  2.0000121438998488e+00  2.0000138057566006e+00  2.0000156893951564e+00  2.0000178236206860e+00  2.0000202408703371e+00  2.0000229776564176e+00  2.0000260750616929e+00  2.0000295792926726e+00  2.0000335422974009e+00  2.0000380224549343e+00  2.0000430853444633e+00  2.0000488046028888e+00  2.0000552628805432e+00  2.0000625529057863e+00  2.0000707786703118e+00  2.0000800567481956e+00  2.0000905177630290e+00  2.0001023080189801e+00  2.0001155913131585e+00  2.0001305509484140e+00  2.0001473919675696e+00  2.0001663436321664e+00  2.0001876621709993e+00  2.0002116338261815e+00  2.0002385782271022e+00  2.0002688521254854e+00  2.0003028535278946e+00  2.0003410262653145e+00  2.0003838650431383e+00  2.0004319210187043e+00  2.0004858079577823e+00  2.0005462090258654e+00  2.0006138842749999e+00  2.0006896788920057e+00  2.0007745322794701e+00  2.0008694880467526e+00  2.0009757049944490e+00  2.0010944691823265e+00  2.0012272071776818e+00  2.0013755005882765e+00  2.0015411019916240e+00  2.0017259523801996e+00  2.0019322002502444e+00  2.0021622224700946e+00  2.0024186470723095e+00  2.0027043781222407e+00  2.0030226228239010e+00  2.0033769210319674e+00  2.0037711773462141e+00  2.0042096959714719e+00  2.0046972185320238e+00  2.0052389650338283e+00  2.0058406781707694e+00  2.0065086711717393e+00  2.0072498793832230e+00  2.0080719157765916e+00  2.0089831305596362e+00  2.0099926750572852e+00  2.0111105700058238e+00  2.0123477783771762e+00  2.0137162828136859e+00  2.0152291677078646e+00  2.0169007059041473e+00  2.0187464499291456e+00  2.0207833275712779e+00  2.0230297415279641e+00  2.0255056727167542e+00  2.0282327867036583e+00  2.0312345425354463e+00  2.0345363030709014e+00  2.0381654456871758e+00  2.0421514719903233e+00  2.0465261148831759e+00  2.0513234410392509e+00  2.0565799464998857e+00  2.0623346427563698e+00  2.0686291303045006e+00  2.0755076562731998e+00  2.0830171523417054e+00  2.0912072487850888e+00  2.1001302601422971e+00  2.1098411377056974e+00  2.1203973838109991e+00  2.1318589227900793e+00  2.1442879234685406e+00  2.1577485682787589e+00  2.1723067644527236e+00  2.1880297933905748e+00  2.2049858951999983e+00  2.2232437865910137e+00  2.2428721118014781e+00  2.2639388280178885e+00  2.2865105288218275e+00  2.3106517114913250e+00  2.3364239964512579e+00  2.3638853097057537e+00  2.3930890415841155e+00  2.4240831974564494e+00  2.4569095580808185e+00  2.4916028687822922e+00  2.5281900775962605e+00  2.5666896427156929e+00  2.6071109289796350e+00  2.6494537116878560e+00  2.6937078037358715e+00  2.7398528190030724e+00  2.7878580812167040e+00  2.8376826833253506e+00  2.8892756979534662e+00  2.9425765349994042e+00  2.9975154381129134e+00  3.0540141078586829e+00  3.1119864360239822e+00  3.1713393329012902e+00  3.2319736275595927e+00  3.2937850201454486e+00  3.3566650651087211e+00  3.4205021648641738e+00  3.4851825546780102e+00  3.5505912613821362e+00  3.6166130207286167e+00  3.6831331406606722e+00  3.7500383003593876e+00  3.8172172775064350e+00  3.8845615986810231e+00  3.9519661101041916e+00  4.0193294679983689e+00  4.0865545496085778e+00  4.1535487874170895e+00  4.2202244302744072e+00  4.2864987360782170e+00  4.3522941012792637e+00  4.4175381329061087e+00  4.4821636690105739e+00  4.5461087534739972e+00  4.6093165710131458e+00  4.6717353480132857e+00  4.7333182245219838e+00  4.7940231023843838e+00  4.8538124741101791e+00  4.9126532366510816e+00  4.9705164938498321e+00  5.0273773509087851e+00  5.0832147038262123e+00  5.1380110263683125e+00  5.1917521567885627e+00  5.2444270861763886e+00  5.2960277500154680e+00  5.3465488242589467e+00  5.3959875269837667e+00  5.4443434264685155e+00  5.4916182563470688e+00  5.5378157383223234e+00  5.5829414127787356e+00  5.6270024775069905e+00  5.6700076346475159e+00  5.7119669458692917e+00  5.7528916957252472e+00  5.7927942630633549e+00  5.8316880003220470e+00  5.8695871204981120e+00  5.9065065915437280e+00  5.9424620379252122e+00  5.9774696490586470e+00  6.0115460943256425e+00  6.0447084443652894e+00  6.0769740983351070e+00  6.1083607168339054e+00  6.1388861601821230e+00  6.1685684317603018e+00  6.1974256261130209e+00  6.2254758815337006e+00  6.2527373368550823e+00  6.2792280921799124e+00  6.3049661732972231e+00  6.3299694995403231e+00  6.3542558548538937e+00  6.3778428618487464e+00  6.4007479586340184e+00  6.4229883782275872e+00  6.4445811303563536e+00  6.4655429854686348e+00  6.4858904607911372e+00  6.5056398082729210e+00  6.5248070042683395e+00  6.5434077408200668e+00  6.5614574184121057e+00  6.5789711400710864e+00  6.5959637067020260e+00  6.6124496135524149e+00  6.6284430477055309e+00  6.6439578865107878e+00  6.6590076968652552e+00  6.6736057352665812e+00  6.6877649485631911e+00  6.7014979753330985e+00  6.7148171478275254e+00  6.7277344944204955e+00  6.7402617425097393e+00  6.7524103218186102e+00  6.7641913680524661e+00  6.7756157268666524e+00  6.7866939581066346e+00  6.7974363402839275e+00  6.8078528752545004e+00  6.8179532930690545e+00  6.8277470569670529e+00  6.8372433684889868e+00  6.8464511726832971e+00  6.8553791633866377e+00  6.8640357885580281e+00  6.8724292556491271e+00  6.8805675369946551e+00  6.8884583752083977e+00  6.8961092885716626e+00  6.9035275764024133e+00  6.9107203243944477e+00  6.9176944099171260e+00  6.9244565072671982e+00  6.9310130928652152e+00  6.9373704503898290e+00  6.9435346758441998e+00  6.9495116825493790e+00  6.9553072060602190e+00  6.9609268090000329e+00  6.9663758858107494e+00  6.9716596674158415e+00  6.9767832257938087e+00  6.9817514784603913e+00  6.9865691928580942e+00  6.9912409906520123e+00  6.9957713519311806e+00  7.0001646193150693e+00  7.0044250019650409e+00  7.0085565795008504e+00  7.0125633058225052e+00  7.0164490128379819e+00  7.0202174140974503e+00  7.0238721083348503e+00  7.0274165829177848e+00  7.0308542172068265e+00  7.0341882858253912e+00  7.0374219618415301e+00  7.0405583198629769e+00  7.0436003390468542e+00  7.0465509060256357e+00  7.0494128177508086e+00  7.0521887842559137e+00  7.0548814313405108e+00  7.0574933031767921e+00  7.0600268648404656e+00  7.0624845047676068e+00  7.0648685371391524e+00  7.0671812041947941e+00  7.0694246784778629e+00  7.0716010650129997e+00  7.0737124034181793e+00  7.0757606699528806e+00  7.0777477795039392e+00  7.0796755875107813e+00  7.0815458918316567e+00  7.0833604345524153e+00  7.0851209037394591e+00  7.0868289351383655e+00  7.0884861138197301e+00  7.0900939757737174e+00  7.0916540094547704e+00  7.0931676572779123e+00  7.0946363170681055e+00  7.0960613434639388e+00  7.0974440492770885e+00  7.0987857068088154e+00  7.1000875491248090e+00  7.1013507712896127e+00  7.1025765315618665e+00  7.1037659525515817e+00  7.1049201223405580e+00  7.1060400955671499e+00  7.1071268944764299e+00  7.1081815099368368e+00  7.1092049024243833e+00  7.1101980029754106e+00  7.1111617141088876e+00  7.1120969107192176e+00  7.1130044409405073e+00  7.1138851269831642e+00  7.1147397659437503e+00  7.1155691305889039e+00  7.1163739701142275e+00  7.1171550108788351e+00  7.1179129571164914e+00  7.1186484916239579e+00  7.1193622764273909e+00  7.1200549534274362e+00  7.1207271450237393e+00  7.1213794547195599e+00  7.1220124677070871e+00  7.1226267514341464e+00  7.1232228561528670e+00  7.1238013154509172e+00  7.1243626467658707e+00  7.1249073518832660e+00  7.1254359174188791e+00  7.1259488152857644e+00  7.1264465031465125e+00  7.1269294248512596e+00  7.1273980108618806e+00  7.1278526786628555e+00  7.1282938331592076e+00  7.1287218670619845e+00  7.1291371612616556e+00  7.1295400851898192e+00  7.1299309971696818e+00  7.1303102447555382e+00  7.1306781650617674e+00  7.1310350850815842e+00  7.1313813219959261e+00  7.1317171834727899e+00  7.1320429679573598e+00  7.1323589649531840e+00  7.1326654552947417e+00  7.1329627114116665e+00  7.1332509975849208e+00  7.1335305701951359e+00  7.1338016779634792e+00  7.1340645621852117e+00  7.1343194569562201e+00  7.1345665893927626e+00  7.1348061798446620e+00  7.1350384421021529e+00  7.1352635835966032e+00  7.1354818055953357e+00  7.1356933033907479e+00  7.1358982664838706e+00  7.1360968787626344e+00  7.1362893186749607e+00  7.1364757593968191e+00  7.1366563689955012e+00  7.1368313105881480e+00  7.1370007424957231e+00  7.1371648183925629e+00  7.1373236874515626e+00  7.1374774944851760e+00  7.1376263800822111e+00  7.1377704807406213e+00  7.1379099289962555e+00  7.1380448535476813e+00  7.1381753793770839e+00  7.1383016278673228e+00  7.1384237169151152e+00  7.1385417610404192e+00  7.1386558714919719e+00  7.1387661563490248e+00  7.1388727206192586e+00  7.1389756663328932e+00  7.1390750926329645e+00  7.1391710958617844e+00  7.1392637696435770e+00  7.1393532049633022e+00  7.1394394902416627e+00  7.1395227114063342e+00  7.1396029519594197e+00  7.1396802930411933e+00  7.1397548134901285e+00  7.1398265898993323e+00  7.1398956966694218e+00  7.1399622060578896e+00  7.1400261882251250e+00  7.1400877112771184e+00  7.1401468413050093e+00  7.1402036424215840e+00  7.1402581767948616e+00  7.1403105046788795e+00  7.1403606844418697e+00  7.1404087725919325e+00  7.1404548238003889e+00  7.1404988909229523e+00  7.1405410250188552e+00  7.1405812753681408e+00  7.1406196894872114e+00  7.1406563131427987e+00  7.1406911903645138e+00  7.1407243634560844e+00  7.1407558730054310e+00  7.1407857578936804e+00  7.1408140553032498e+00  7.1408408007250825e+00  7.1408660279651501e+00  7.1408897691502800e+00  7.1409120547334153e+00  7.1409329134983439e+00  7.1409523725639827e+00  7.1409704573882378e+00  7.1409871917715275e+00  7.1410025978599476e+00  7.1410166961481645e+00  7.1410295054820336e+00  7.1410410430609517e+00  7.1410513244399887e+00  7.1410603635318104e+00  7.1410681726083380e+00  7.1410747623022628e+00  7.1410801416083114e+00  7.1410843178843333e+00  7.1410872968521844e+00  7.1410890825984144e+00  7.1410896775747528e+00  7.1410890825984126e+00  7.1410872968521852e+00  7.1410843178843368e+00  7.1410801416083132e+00  7.1410747623022663e+00  7.1410681726083407e+00  7.1410603635318113e+00  7.1410513244399922e+00  7.1410410430609526e+00  7.1410295054820345e+00  7.1410166961481671e+00  7.1410025978599485e+00  7.1409871917715302e+00  7.1409704573882422e+00  7.1409523725639845e+00  7.1409329134983466e+00  7.1409120547334171e+00  7.1408897691502808e+00  7.1408660279651484e+00  7.1408408007250816e+00  7.1408140553032471e+00  7.1407857578936786e+00  7.1407558730054310e+00  7.1407243634560844e+00  7.1406911903645121e+00  7.1406563131427951e+00  7.1406196894872069e+00  7.1405812753681372e+00  7.1405410250188517e+00  7.1404988909229523e+00  7.1404548238003898e+00  7.1404087725919325e+00  7.1403606844418697e+00  7.1403105046788831e+00  7.1402581767948643e+00  7.1402036424215876e+00  7.1401468413050120e+00  7.1400877112771219e+00  7.1400261882251286e+00  7.1399622060578922e+00  7.1398956966694236e+00  7.1398265898993323e+00  7.1397548134901276e+00  7.1396802930411942e+00  7.1396029519594233e+00  7.1395227114063324e+00  7.1394394902416618e+00  7.1393532049632986e+00  7.1392637696435752e+00  7.1391710958617818e+00  7.1390750926329627e+00  7.1389756663328914e+00  7.1388727206192577e+00  7.1387661563490257e+00  7.1386558714919754e+00  7.1385417610404209e+00  7.1384237169151152e+00  7.1383016278673210e+00  7.1381753793770830e+00  7.1380448535476813e+00  7.1379099289962555e+00  7.1377704807406221e+00  7.1376263800822128e+00  7.1374774944851769e+00  7.1373236874515662e+00  7.1371648183925647e+00  7.1370007424957240e+00  7.1368313105881480e+00  7.1366563689955038e+00  7.1364757593968209e+00  7.1362893186749607e+00  7.1360968787626398e+00  7.1358982664838706e+00  7.1356933033907479e+00  7.1354818055953357e+00  7.1352635835966023e+00  7.1350384421021493e+00  7.1348061798446611e+00  7.1345665893927599e+00  7.1343194569562174e+00  7.1340645621852108e+00  7.1338016779634774e+00  7.1335305701951324e+00  7.1332509975849172e+00  7.1329627114116656e+00  7.1326654552947373e+00  7.1323589649531787e+00  7.1320429679573563e+00  7.1317171834727890e+00  7.1313813219959235e+00  7.1310350850815833e+00  7.1306781650617683e+00  7.1303102447555364e+00  7.1299309971696809e+00  7.1295400851898219e+00  7.1291371612616548e+00  7.1287218670619881e+00  7.1282938331592085e+00  7.1278526786628555e+00  7.1273980108618824e+00  7.1269294248512596e+00  7.1264465031465143e+00  7.1259488152857626e+00  7.1254359174188782e+00  7.1249073518832633e+00  7.1243626467658689e+00  7.1238013154509146e+00  7.1232228561528652e+00  7.1226267514341455e+00  7.1220124677070871e+00  7.1213794547195599e+00  7.1207271450237419e+00  7.1200549534274380e+00  7.1193622764273927e+00  7.1186484916239605e+00  7.1179129571164950e+00  7.1171550108788413e+00  7.1163739701142354e+00  7.1155691305889137e+00  7.1147397659437539e+00  7.1138851269831687e+00  7.1130044409405082e+00  7.1120969107192211e+00  7.1111617141088912e+00  7.1101980029754133e+00  7.1092049024243860e+00  7.1081815099368351e+00  7.1071268944764299e+00  7.1060400955671499e+00  7.1049201223405563e+00  7.1037659525515808e+00  7.1025765315618665e+00  7.1013507712896118e+00  7.1000875491248099e+00  7.0987857068088145e+00  7.0974440492770867e+00  7.0960613434639406e+00  7.0946363170681082e+00  7.0931676572779132e+00  7.0916540094547695e+00  7.0900939757737174e+00  7.0884861138197319e+00  7.0868289351383655e+00  7.0851209037394591e+00  7.0833604345524153e+00  7.0815458918316585e+00  7.0796755875107857e+00  7.0777477795039410e+00  7.0757606699528823e+00  7.0737124034181775e+00  7.0716010650129997e+00  7.0694246784778629e+00  7.0671812041947932e+00  7.0648685371391506e+00  7.0624845047676068e+00  7.0600268648404692e+00  7.0574933031767939e+00  7.0548814313405108e+00  7.0521887842559128e+00  7.0494128177508095e+00  7.0465509060256366e+00  7.0436003390468551e+00  7.0405583198629760e+00  7.0374219618415301e+00  7.0341882858253912e+00  7.0308542172068256e+00  7.0274165829177857e+00  7.0238721083348494e+00  7.0202174140974520e+00  7.0164490128379846e+00  7.0125633058225061e+00  7.0085565795008478e+00  7.0044250019650400e+00  7.0001646193150702e+00  6.9957713519311788e+00  6.9912409906520088e+00  6.9865691928580924e+00  6.9817514784603887e+00  6.9767832257938069e+00  6.9716596674158406e+00  6.9663758858107458e+00  6.9609268090000302e+00  6.9553072060602146e+00  6.9495116825493781e+00  6.9435346758441980e+00  6.9373704503898299e+00  6.9310130928652205e+00  6.9244565072672053e+00  6.9176944099171278e+00  6.9107203243944504e+00  6.9035275764024187e+00  6.8961092885716671e+00  6.8884583752083985e+00  6.8805675369946560e+00  6.8724292556491253e+00  6.8640357885580263e+00  6.8553791633866368e+00  6.8464511726832971e+00  6.8372433684889868e+00  6.8277470569670529e+00  6.8179532930690545e+00  6.8078528752545022e+00  6.7974363402839248e+00  6.7866939581066328e+00  6.7756157268666533e+00  6.7641913680524661e+00  6.7524103218186102e+00  6.7402617425097411e+00  6.7277344944204955e+00  6.7148171478275280e+00  6.7014979753331030e+00  6.6877649485631974e+00  6.6736057352665830e+00  6.6590076968652543e+00  6.6439578865107887e+00  6.6284430477055336e+00  6.6124496135524184e+00  6.5959637067020314e+00  6.5789711400710891e+00  6.5614574184121093e+00  6.5434077408200713e+00  6.5248070042683457e+00  6.5056398082729254e+00  6.4858904607911407e+00  6.4655429854686401e+00  6.4445811303563589e+00  6.4229883782275916e+00  6.4007479586340219e+00  6.3778428618487482e+00  6.3542558548538937e+00  6.3299694995403231e+00  6.3049661732972249e+00  6.2792280921799142e+00  6.2527373368550814e+00  6.2254758815336997e+00  6.1974256261130201e+00  6.1685684317603036e+00  6.1388861601821239e+00  6.1083607168339080e+00  6.0769740983351088e+00  6.0447084443652903e+00  6.0115460943256451e+00  5.9774696490586487e+00  5.9424620379252140e+00  5.9065065915437325e+00  5.8695871204981156e+00  5.8316880003220497e+00  5.7927942630633593e+00  5.7528916957252481e+00  5.7119669458692925e+00  5.6700076346475159e+00  5.6270024775069913e+00  5.5829414127787373e+00  5.5378157383223261e+00  5.4916182563470732e+00  5.4443434264685227e+00  5.3959875269837712e+00  5.3465488242589512e+00  5.2960277500154751e+00  5.2444270861763966e+00  5.1917521567885707e+00  5.1380110263683205e+00  5.0832147038262203e+00  5.0273773509087913e+00  4.9705164938498356e+00  4.9126532366510824e+00  4.8538124741101809e+00  4.7940231023843847e+00  4.7333182245219838e+00  4.6717353480132893e+00  4.6093165710131494e+00  4.5461087534740026e+00  4.4821636690105793e+00  4.4175381329061132e+00  4.3522941012792655e+00  4.2864987360782170e+00  4.2202244302744081e+00  4.1535487874170922e+00  4.0865545496085804e+00  4.0193294679983689e+00  3.9519661101041943e+00  3.8845615986810258e+00  3.8172172775064386e+00  3.7500383003593902e+00  3.6831331406606753e+00  3.6166130207286207e+00  3.5505912613821393e+00  3.4851825546780133e+00  3.4205021648641756e+00  3.3566650651087229e+00  3.2937850201454495e+00  3.2319736275595941e+00  3.1713393329012911e+00  3.1119864360239835e+00  3.0540141078586833e+00  2.9975154381129134e+00  2.9425765349994033e+00  2.8892756979534657e+00  2.8376826833253497e+00  2.7878580812167022e+00  2.7398528190030729e+00  2.6937078037358702e+00  2.6494537116878552e+00  2.6071109289796337e+00  2.5666896427156938e+00  2.5281900775962600e+00  2.4916028687822926e+00  2.4569095580808198e+00  2.4240831974564503e+00  2.3930890415841160e+00  2.3638853097057551e+00  2.3364239964512588e+00  2.3106517114913299e+00  2.2865105288218315e+00  2.2639388280178929e+00  2.2428721118014820e+00  2.2232437865910173e+00  2.2049858952000014e+00  2.1880297933905766e+00  2.1723067644527263e+00  2.1577485682787607e+00  2.1442879234685415e+00  2.1318589227900802e+00  2.1203973838110008e+00  2.1098411377056996e+00  2.1001302601422975e+00  2.0912072487850892e+00  2.0830171523417058e+00  2.0755076562732