<?xml version="1.0"?>
<VTKFile type="UnstructuredGrid"  version="0.1"  >
<UnstructuredGrid>
<Piece  NumberOfPoints="1001" NumberOfCells="1000">
<Points>
<DataArray  type="Float64"  NumberOfComponents="3"  format="ascii">0 0 0  0.001 0 0  0.002 0 0  0.003 0 0  0.004 0 0  0.005 0 0  0.006 0 0  0.007 0 0  0.008 0 0  0.008999999999999999 0 0  0.01 0 0  0.011 0 0  0.012 0 0  0.013 0 0  0.014 0 0  0.015 0 0  0.016 0 0  0.017 0 0  0.018 0 0  0.019 0 0  0.02 0 0  0.021 0 0  0.022 0 0  0.023 0 0  0.024 0 0  0.025 0 0  0.026 0 0  0.027 0 0  0.028 0 0  0.029 0 0  0.03 0 0  0.031 0 0  0.032 0 0  0.033 0 0  0.034 0 0  0.035 0 0  0.036 0 0  0.037 0 0  0.038 0 0  0.039 0 0  0.04 0 0  0.041 0 0  0.042 0 0  0.043 0 0  0.044 0 0  0.045 0 0  0.046 0 0  0.047 0 0  0.048 0 0  0.049 0 0  0.05 0 0  0.051 0 0  0.052 0 0  0.053 0 0  0.054 0 0  0.055 0 0  0.056 0 0  0.057 0 0  0.058 0 0  0.059 0 0  0.06 0 0  0.061 0 0  0.062 0 0  0.063 0 0  0.064 0 0  0.065 0 0  0.066 0 0  0.067 0 0  0.068 0 0  0.06900000000000001 0 0  0.07000000000000001 0 0  0.07099999999999999 0 0  0.07199999999999999 0 0  0.073 0 0  0.074 0 0  0.075 0 0  0.076 0 0  0.077 0 0  0.078 0 0  0.079 0 0  0.08 0 0  0.081 0 0  0.082 0 0  0.083 0 0  0.08400000000000001 0 0  0.08500000000000001 0 0  0.08599999999999999 0 0  0.08699999999999999 0 0  0.08799999999999999 0 0  0.089 0 0  0.09 0 0  0.091 0 0  0.092 0 0  0.093 0 0  0.094 0 0  0.095 0 0  0.096 0 0  0.097 0 0  0.098 0 0  0.099 0 0  0.1 0 0  0.101 0 0  0.102 0 0  0.103 0 0  0.104 0 0  0.105 0 0  0.106 0 0  0.107 0 0  0.108 0 0  0.109 0 0  0.11 0 0  0.111 0 0  0.112 0 0  0.113 0 0  0.114 0 0  0.115 0 0  0.116 0 0  0.117 0 0  0.118 0 0  0.119 0 0  0.12 0 0  0.121 0 0  0.122 0 0  0.123 0 0  0.124 0 0  0.125 0 0  0.126 0 0  0.127 0 0  0.128 0 0  0.129 0 0  0.13 0 0  0.131 0 0  0.132 0 0  0.133 0 0  0.134 0 0  0.135 0 0  0.136 0 0  0.137 0 0  0.138 0 0  0.139 0 0  0.14 0 0  0.141 0 0  0.142 0 0  0.143 0 0  0.144 0 0  0.145 0 0  0.146 0 0  0.147 0 0  0.148 0 0  0.149 0 0  0.15 0 0  0.151 0 0  0.152 0 0  0.153 0 0  0.154 0 0  0.155 0 0  0.156 0 0  0.157 0 0  0.158 0 0  0.159 0 0  0.16 0 0  0.161 0 0  0.162 0 0  0.163 0 0  0.164 0 0  0.165 0 0  0.166 0 0  0.167 0 0  0.168 0 0  0.169 0 0  0.17 0 0  0.171 0 0  0.172 0 0  0.173 0 0  0.174 0 0  0.175 0 0  0.176 0 0  0.177 0 0  0.178 0 0  0.179 0 0  0.18 0 0  0.181 0 0  0.182 0 0  0.183 0 0  0.184 0 0  0.185 0 0  0.186 0 0  0.187 0 0  0.188 0 0  0.189 0 0  0.19 0 0  0.191 0 0  0.192 0 0  0.193 0 0  0.194 0 0  0.195 0 0  0.196 0 0  0.197 0 0  0.198 0 0  0.199 0 0  0.2 0 0  0.201 0 0  0.202 0 0  0.203 0 0  0.204 0 0  0.205 0 0  0.206 0 0  0.207 0 0  0.208 0 0  0.209 0 0  0.21 0 0  0.211 0 0  0.212 0 0  0.213 0 0  0.214 0 0  0.215 0 0  0.216 0 0  0.217 0 0  0.218 0 0  0.219 0 0  0.22 0 0  0.221 0 0  0.222 0 0  0.223 0 0  0.224 0 0  0.225 0 0  0.226 0 0  0.227 0 0  0.228 0 0  0.229 0 0  0.23 0 0  0.231 0 0  0.232 0 0  0.233 0 0  0.234 0 0  0.235 0 0  0.236 0 0  0.237 0 0  0.238 0 0  0.239 0 0  0.24 0 0  0.241 0 0  0.242 0 0  0.243 0 0  0.244 0 0  0.245 0 0  0.246 0 0  0.247 0 0  0.248 0 0  0.249 0 0  0.25 0 0  0.251 0 0  0.252 0 0  0.253 0 0  0.254 0 0  0.255 0 0  0.256 0 0  0.257 0 0  0.258 0 0  0.259 0 0  0.26 0 0  0.261 0 0  0.262 0 0  0.263 0 0  0.264 0 0  0.265 0 0  0.266 0 0  0.267 0 0  0.268 0 0  0.269 0 0  0.27 0 0  0.271 0 0  0.272 0 0  0.273 0 0  0.274 0 0  0.275 0 0  0.276 0 0  0.277 0 0  0.278 0 0  0.279 0 0  0.28 0 0  0.281 0 0  0.282 0 0  0.283 0 0  0.284 0 0  0.285 0 0  0.286 0 0  0.287 0 0  0.288 0 0  0.289 0 0  0.29 0 0  0.291 0 0  0.292 0 0  0.293 0 0  0.294 0 0  0.295 0 0  0.296 0 0  0.297 0 0  0.298 0 0  0.299 0 0  0.3 0 0  0.301 0 0  0.302 0 0  0.303 0 0  0.304 0 0  0.305 0 0  0.306 0 0  0.307 0 0  0.308 0 0  0.309 0 0  0.31 0 0  0.311 0 0  0.312 0 0  0.313 0 0  0.314 0 0  0.315 0 0  0.316 0 0  0.317 0 0  0.318 0 0  0.319 0 0  0.32 0 0  0.321 0 0  0.322 0 0  0.323 0 0  0.324 0 0  0.325 0 0  0.326 0 0  0.327 0 0  0.328 0 0  0.329 0 0  0.33 0 0  0.331 0 0  0.332 0 0  0.333 0 0  0.334 0 0  0.335 0 0  0.336 0 0  0.337 0 0  0.338 0 0  0.339 0 0  0.34 0 0  0.341 0 0  0.342 0 0  0.343 0 0  0.344 0 0  0.345 0 0  0.346 0 0  0.347 0 0  0.348 0 0  0.349 0 0  0.35 0 0  0.351 0 0  0.352 0 0  0.353 0 0  0.354 0 0  0.355 0 0  0.356 0 0  0.357 0 0  0.358 0 0  0.359 0 0  0.36 0 0  0.361 0 0  0.362 0 0  0.363 0 0  0.364 0 0  0.365 0 0  0.366 0 0  0.367 0 0  0.368 0 0  0.369 0 0  0.37 0 0  0.371 0 0  0.372 0 0  0.373 0 0  0.374 0 0  0.375 0 0  0.376 0 0  0.377 0 0  0.378 0 0  0.379 0 0  0.38 0 0  0.381 0 0  0.382 0 0  0.383 0 0  0.384 0 0  0.385 0 0  0.386 0 0  0.387 0 0  0.388 0 0  0.389 0 0  0.39 0 0  0.391 0 0  0.392 0 0  0.393 0 0  0.394 0 0  0.395 0 0  0.396 0 0  0.397 0 0  0.398 0 0  0.399 0 0  0.4 0 0  0.401 0 0  0.402 0 0  0.403 0 0  0.404 0 0  0.405 0 0  0.406 0 0  0.407 0 0  0.408 0 0  0.409 0 0  0.41 0 0  0.411 0 0  0.412 0 0  0.413 0 0  0.414 0 0  0.415 0 0  0.416 0 0  0.417 0 0  0.418 0 0  0.419 0 0  0.42 0 0  0.421 0 0  0.422 0 0  0.423 0 0  0.424 0 0  0.425 0 0  0.426 0 0  0.427 0 0  0.428 0 0  0.429 0 0  0.43 0 0  0.431 0 0  0.432 0 0  0.433 0 0  0.434 0 0  0.435 0 0  0.436 0 0  0.437 0 0  0.438 0 0  0.439 0 0  0.44 0 0  0.441 0 0  0.442 0 0  0.443 0 0  0.444 0 0  0.445 0 0  0.446 0 0  0.447 0 0  0.448 0 0  0.449 0 0  0.45 0 0  0.451 0 0  0.452 0 0  0.453 0 0  0.454 0 0  0.455 0 0  0.456 0 0  0.457 0 0  0.458 0 0  0.459 0 0  0.46 0 0  0.461 0 0  0.462 0 0  0.463 0 0  0.464 0 0  0.465 0 0  0.466 0 0  0.467 0 0  0.468 0 0  0.469 0 0  0.47 0 0  0.471 0 0  0.472 0 0  0.473 0 0  0.474 0 0  0.475 0 0  0.476 0 0  0.477 0 0  0.478 0 0  0.479 0 0  0.48 0 0  0.481 0 0  0.482 0 0  0.483 0 0  0.484 0 0  0.485 0 0  0.486 0 0  0.487 0 0  0.488 0 0  0.489 0 0  0.49 0 0  0.491 0 0  0.492 0 0  0.493 0 0  0.494 0 0  0.495 0 0  0.496 0 0  0.497 0 0  0.498 0 0  0.499 0 0  0.5 0 0  0.501 0 0  0.502 0 0  0.503 0 0  0.504 0 0  0.505 0 0  0.506 0 0  0.507 0 0  0.508 0 0  0.509 0 0  0.51 0 0  0.511 0 0  0.512 0 0  0.513 0 0  0.514 0 0  0.515 0 0  0.516 0 0  0.517 0 0  0.518 0 0  0.519 0 0  0.52 0 0  0.521 0 0  0.522 0 0  0.523 0 0  0.524 0 0  0.525 0 0  0.526 0 0  0.527 0 0  0.528 0 0  0.529 0 0  0.53 0 0  0.531 0 0  0.532 0 0  0.533 0 0  0.534 0 0  0.535 0 0  0.536 0 0  0.537 0 0  0.538 0 0  0.539 0 0  0.54 0 0  0.541 0 0  0.542 0 0  0.543 0 0  0.544 0 0  0.545 0 0  0.546 0 0  0.547 0 0  0.548 0 0  0.549 0 0  0.55 0 0  0.551 0 0  0.552 0 0  0.553 0 0  0.554 0 0  0.555 0 0  0.556 0 0  0.5570000000000001 0 0  0.5580000000000001 0 0  0.5590000000000001 0 0  0.5600000000000001 0 0  0.5610000000000001 0 0  0.5620000000000001 0 0  0.5629999999999999 0 0  0.5639999999999999 0 0  0.5649999999999999 0 0  0.5659999999999999 0 0  0.5669999999999999 0 0  0.5679999999999999 0 0  0.569 0 0  0.57 0 0  0.571 0 0  0.572 0 0  0.573 0 0  0.574 0 0  0.575 0 0  0.576 0 0  0.577 0 0  0.578 0 0  0.579 0 0  0.58 0 0  0.581 0 0  0.582 0 0  0.583 0 0  0.584 0 0  0.585 0 0  0.586 0 0  0.587 0 0  0.588 0 0  0.589 0 0  0.59 0 0  0.591 0 0  0.592 0 0  0.593 0 0  0.594 0 0  0.595 0 0  0.596 0 0  0.597 0 0  0.598 0 0  0.599 0 0  0.6 0 0  0.601 0 0  0.602 0 0  0.603 0 0  0.604 0 0  0.605 0 0  0.606 0 0  0.607 0 0  0.608 0 0  0.609 0 0  0.61 0 0  0.611 0 0  0.612 0 0  0.613 0 0  0.614 0 0  0.615 0 0  0.616 0 0  0.617 0 0  0.618 0 0  0.619 0 0  0.62 0 0  0.621 0 0  0.622 0 0  0.623 0 0  0.624 0 0  0.625 0 0  0.626 0 0  0.627 0 0  0.628 0 0  0.629 0 0  0.63 0 0  0.631 0 0  0.632 0 0  0.633 0 0  0.634 0 0  0.635 0 0  0.636 0 0  0.637 0 0  0.638 0 0  0.639 0 0  0.64 0 0  0.641 0 0  0.642 0 0  0.643 0 0  0.644 0 0  0.645 0 0  0.646 0 0  0.647 0 0  0.648 0 0  0.649 0 0  0.65 0 0  0.651 0 0  0.652 0 0  0.653 0 0  0.654 0 0  0.655 0 0  0.656 0 0  0.657 0 0  0.658 0 0  0.659 0 0  0.66 0 0  0.661 0 0  0.662 0 0  0.663 0 0  0.664 0 0  0.665 0 0  0.666 0 0  0.667 0 0  0.668 0 0  0.669 0 0  0.67 0 0  0.671 0 0  0.672 0 0  0.673 0 0  0.674 0 0  0.675 0 0  0.676 0 0  0.677 0 0  0.678 0 0  0.679 0 0  0.68 0 0  0.681 0 0  0.6820000000000001 0 0  0.6830000000000001 0 0  0.6840000000000001 0 0  0.6850000000000001 0 0  0.6860000000000001 0 0  0.6870000000000001 0 0  0.6879999999999999 0 0  0.6889999999999999 0 0  0.6899999999999999 0 0  0.6909999999999999 0 0  0.6919999999999999 0 0  0.6929999999999999 0 0  0.694 0 0  0.695 0 0  0.696 0 0  0.697 0 0  0.698 0 0  0.699 0 0  0.7 0 0  0.701 0 0  0.702 0 0  0.703 0 0  0.704 0 0  0.705 0 0  0.706 0 0  0.707 0 0  0.708 0 0  0.709 0 0  0.71 0 0  0.711 0 0  0.712 0 0  0.713 0 0  0.714 0 0  0.715 0 0  0.716 0 0  0.717 0 0  0.718 0 0  0.719 0 0  0.72 0 0  0.721 0 0  0.722 0 0  0.723 0 0  0.724 0 0  0.725 0 0  0.726 0 0  0.727 0 0  0.728 0 0  0.729 0 0  0.73 0 0  0.731 0 0  0.732 0 0  0.733 0 0  0.734 0 0  0.735 0 0  0.736 0 0  0.737 0 0  0.738 0 0  0.739 0 0  0.74 0 0  0.741 0 0  0.742 0 0  0.743 0 0  0.744 0 0  0.745 0 0  0.746 0 0  0.747 0 0  0.748 0 0  0.749 0 0  0.75 0 0  0.751 0 0  0.752 0 0  0.753 0 0  0.754 0 0  0.755 0 0  0.756 0 0  0.757 0 0  0.758 0 0  0.759 0 0  0.76 0 0  0.761 0 0  0.762 0 0  0.763 0 0  0.764 0 0  0.765 0 0  0.766 0 0  0.767 0 0  0.768 0 0  0.769 0 0  0.77 0 0  0.771 0 0  0.772 0 0  0.773 0 0  0.774 0 0  0.775 0 0  0.776 0 0  0.777 0 0  0.778 0 0  0.779 0 0  0.78 0 0  0.781 0 0  0.782 0 0  0.783 0 0  0.784 0 0  0.785 0 0  0.786 0 0  0.787 0 0  0.788 0 0  0.789 0 0  0.79 0 0  0.791 0 0  0.792 0 0  0.793 0 0  0.794 0 0  0.795 0 0  0.796 0 0  0.797 0 0  0.798 0 0  0.799 0 0  0.8 0 0  0.801 0 0  0.802 0 0  0.803 0 0  0.804 0 0  0.805 0 0  0.806 0 0  0.8070000000000001 0 0  0.8080000000000001 0 0  0.8090000000000001 0 0  0.8100000000000001 0 0  0.8110000000000001 0 0  0.8120000000000001 0 0  0.8129999999999999 0 0  0.8139999999999999 0 0  0.8149999999999999 0 0  0.8159999999999999 0 0  0.8169999999999999 0 0  0.8179999999999999 0 0  0.819 0 0  0.82 0 0  0.821 0 0  0.822 0 0  0.823 0 0  0.824 0 0  0.825 0 0  0.826 0 0  0.827 0 0  0.828 0 0  0.829 0 0  0.83 0 0  0.831 0 0  0.832 0 0  0.833 0 0  0.834 0 0  0.835 0 0  0.836 0 0  0.837 0 0  0.838 0 0  0.839 0 0  0.84 0 0  0.841 0 0  0
[...]
<PointData  Scalars="f_20-0"> 
<DataArray  type="Float64"  Name="f_20-0"  format="ascii">2.0000000000000324e+00  2.0000000000000329e+00  2.0000000000000360e+00  2.0000000000000395e+00  2.0000000000000453e+00  2.0000000000000537e+00  2.0000000000000639e+00  2.0000000000000768e+00  2.0000000000000919e+00  2.0000000000001101e+00  2.0000000000001337e+00  2.0000000000001608e+00  2.0000000000001932e+00  2.0000000000002314e+00  2.0000000000002776e+00  2.0000000000003326e+00  2.0000000000003983e+00  2.0000000000004761e+00  2.0000000000005684e+00  2.0000000000006777e+00  2.0000000000008078e+00  2.0000000000009628e+00  2.0000000000011462e+00  2.0000000000013634e+00  2.0000000000016209e+00  2.0000000000019273e+00  2.0000000000022897e+00  2.0000000000027183e+00  2.0000000000032259e+00  2.0000000000038280e+00  2.0000000000045404e+00  2.0000000000053828e+00  2.0000000000063785e+00  2.0000000000075553e+00  2.0000000000089457e+00  2.0000000000105880e+00  2.0000000000125269e+00  2.0000000000148144e+00  2.0000000000175127e+00  2.0000000000206946e+00  2.0000000000244449e+00  2.0000000000288627e+00  2.0000000000340661e+00  2.0000000000401923e+00  2.0000000000474021e+00  2.0000000000558820e+00  2.0000000000658558e+00  2.0000000000775793e+00  2.0000000000913554e+00  2.0000000001075349e+00  2.0000000001265308e+00  2.0000000001488245e+00  2.0000000001749800e+00  2.0000000002056515e+00  2.0000000002416058e+00  2.0000000002837379e+00  2.0000000003330878e+00  2.0000000003908709e+00  2.0000000004585008e+00  2.0000000005376255e+00  2.0000000006301621e+00  2.0000000007383405e+00  2.0000000008647558e+00  2.0000000010124244e+00  2.0000000011848531e+00  2.0000000013861130e+00  2.0000000016209309e+00  2.0000000018947981e+00  2.0000000022140809e+00  2.0000000025861637e+00  2.0000000030196090e+00  2.0000000035243368e+00  2.0000000041118389e+00  2.0000000047954218e+00  2.0000000055904827e+00  2.0000000065148389e+00  2.0000000075890925e+00  2.0000000088370582e+00  2.0000000102862545e+00  2.0000000119684649e+00  2.0000000139203831e+00  2.0000000161843570e+00  2.0000000188092364e+00  2.0000000218513501e+00  2.0000000253756238e+00  2.0000000294568592e+00  2.0000000341812036e+00  2.0000000396478286e+00  2.0000000459708498e+00  2.0000000532815259e+00  2.0000000617307698e+00  2.0000000714920234e+00  2.0000000827645308e+00  2.0000000957770858e+00  2.0000001107923087e+00  2.0000001281115081e+00  2.0000001480802481e+00  2.0000001710946753e+00  2.0000001976087343e+00  2.0000002281423841e+00  2.0000002632909433e+00  2.0000003037357232e+00  2.0000003502561268e+00  2.0000004037433885e+00  2.0000004652161905e+00  2.0000005358383932e+00  2.0000006169391602e+00  2.0000007100357946e+00  2.0000008168596244e+00  2.0000009393853548e+00  2.0000010798643140e+00  2.0000012408621068e+00  2.0000014253012277e+00  2.0000016365092828e+00  2.0000018782735056e+00  2.0000021549023903e+00  2.0000024712953182e+00  2.0000028330211768e+00  2.0000032464071085e+00  2.0000037186386272e+00  2.0000042578725084e+00  2.0000048733640368e+00  2.0000055756103481e+00  2.0000063765118430e+00  2.0000072895538334e+00  2.0000083300108957e+00  2.0000095151766244e+00  2.0000108646218435e+00  2.0000124004846311e+00  2.0000141477959277e+00  2.0000161348449210e+00  2.0000183935888423e+00  2.0000209601123569e+00  2.0000238751422708e+00  2.0000271846239399e+00  2.0000309403664347e+00  2.0000352007642923e+00  2.0000400316045206e+00  2.0000455069684611e+00  2.0000517102391253e+00  2.0000587352257306e+00  2.0000666874184119e+00  2.0000756853874009e+00  2.0000858623424773e+00  2.0000973678700729e+00  2.0001103698671905e+00  2.0001250566932312e+00  2.0001416395629135e+00  2.0001603552057614e+00  2.0001814688201298e+00  2.0002052773524532e+00  2.0002321131353389e+00  2.0002623479213084e+00  2.0002963973524546e+00  2.0003347259100193e+00  2.0003778523919080e+00  2.0004263559705020e+00  2.0004808828878162e+00  2.0005421538500210e+00  2.0006109721887269e+00  2.0006882328621667e+00  2.0007749323754562e+00  2.0008721797056506e+00  2.0009812083241023e+00  2.0011033894158778e+00  2.0012402464035541e+00  2.0013934708906200e+00  2.0015649401479538e+00  2.0017567362752695e+00  2.0019711671781746e+00  2.0022107895102006e+00  2.0024784337380623e+00  2.0027772314970433e+00  2.0031106454119003e+00  2.0034825015666602e+00  2.0038970248139472e+00  2.0043588771208336e+00  2.0048731991531499e+00  2.0054456553034794e+00  2.0060824823690684e+00  2.0067905420841368e+00  2.0075773777058599e+00  2.0084512748438486e+00  2.0094213267083409e+00  2.0104975039316320e+00  2.0116907290891439e+00  2.0130129560098315e+00  2.0144772539187081e+00  2.0160978963956198e+00  2.0178904550620529e+00  2.0198718978199368e+00  2.0220606913607702e+00  2.0244769075380713e+00  2.0271423330485661e+00  2.0300805816957652e+00  2.0333172083114239e+00  2.0368798231840590e+00  2.0407982055879974e+00  2.0451044147204565e+00  2.0498328960384615e+00  2.0550205806432680e+00  2.0607069749907017e+00  2.0669342378165294e+00  2.0737472407644537e+00  2.0811936088010445e+00  2.0893237361110861e+00  2.0981907728061473e+00  2.1078505774705589e+00  2.1183616303385175e+00  2.1297849017735384e+00  2.1421836707405277e+00  2.1556232881568591e+00  2.1701708804187878e+00  2.1858949890583581e+00  2.2028651434246975e+00  2.2211513645256171e+00  2.2408235997226167e+00  2.2619510898410264e+00  2.2846016724138116e+00  2.3088410271763049e+00  2.3347318724983777e+00  2.3623331240832566e+00  2.3916990298570941e+00  2.4228782973801155e+00  2.4559132321756909e+00  2.4908389069428813e+00  2.5276823825456702e+00  2.5664620018356943e+00  2.6071867766787191e+00  2.6498558869794291e+00  2.6944583080509150e+00  2.7409725794301076e+00  2.7893667243308680e+00  2.8395983245344203e+00  2.8916147508608017e+00  2.9453535446836669e+00  3.0007429414840194e+00  3.0577025234085964e+00  3.1161439843943763e+00  3.1759719887831217e+00  3.2370851025658478e+00  3.2993767754954781e+00  3.3627363522615088e+00  3.4270500916601554e+00  3.4922021741074785e+00  3.5580756797962052e+00  3.6245535221422536e+00  3.6915193237555943e+00  3.7588582248623741e+00  3.8264576167774540e+00  3.8942077955757788e+00  3.9620025334575613e+00  4.0297395673901741e+00  4.0973210064045924e+00  4.1646536604119309e+00  4.2316492945875401e+00  4.2982248142607276e+00  4.3643023858711008e+00  4.4298094999370807e+00  4.4946789821612647e+00  4.5588489588044983e+00  4.6222627823285984e+00  4.6848689230674712e+00  4.7466208323655064e+00  4.8074767822453364e+00  4.8673996862549114e+00  4.9263569057139920e+00  4.9843200451465117e+00  5.0412647402589963e+00  5.0971704414145158e+00  5.1520201951627085e+00  5.2058004260232851e+00  5.2585007203855119e+00  5.3101136140808212e+00  5.3606343849099867e+00  5.4100608511596242e+00  5.4583931769242175e+00  5.5056336848575080e+00  5.5517866768095097e+00  5.5968582626604766e+00  5.6408561975388647e+00  5.6837897275048457e+00  5.7256694436921265e+00  5.7665071448270195e+00  5.8063157079830807e+00  5.8451089673806136e+00  5.8829016010013335e+00  5.9197090247584363e+00  5.9555472939395768e+00  5.9904330116242397e+00  6.0243832437661746e+00  6.0574154406257010e+00  6.0895473642343871e+00  6.1207970215757737e+00  6.1511826031694232e+00  6.1807224267514993e+00  6.2094348857524730e+00  6.2373384022815666e+00  6.2644513843372520e+00  6.2907921869738752e+00  6.3163790771654558e+00  6.3412302021192746e+00  6.3653635608033730e+00  6.3887969784637306e+00  6.4115480839184897e+00  6.4336342894278538e+00  6.4550727729495456e+00  6.4758804626004682e+00  6.4960740231557432e+00  6.5156698444264203e+00  6.5346840313669112e+00  6.5531323957724892e+00  6.5710304494362042e+00  6.5883933986429231e+00  6.6052361398864035e+00  6.6215732567029431e+00  6.6374190175223431e+00  6.6527873744438981e+00  6.6676919628515057e+00  6.6821461017881383e+00  6.6961627950156997e+00  6.7097547326915743e+00  6.7229342935984242e+00  6.7357135478683858e+00  6.7481042601473913e+00  6.7601178931494017e+00  6.7717656115543789e+00  6.7830582862073632e+00  6.7940064985794342e+00  6.8046205454545783e+00  6.8149104438093895e+00  6.8248859358552796e+00  6.8345564942154624e+00  6.8439313272113944e+00  6.8530193842354663e+00  6.8618293611889296e+00  6.8703697059658317e+00  6.8786486239656046e+00  6.8866740836185016e+00  6.8944538219096740e+00  6.9019953498890345e+00  6.9093059581553442e+00  6.9163927223042334e+00  6.9232625083308648e+00  6.9299219779790580e+00  6.9363775940295920e+00  6.9426356255212589e+00  6.9487021528990915e+00  6.9545830730848195e+00  6.9602841044653996e+00  6.9658107917960077e+00  6.9711685110143815e+00  6.9763624739641159e+00  6.9813977330247461e+00  6.9862791856470325e+00  6.9910115787922260e+00  6.9955995132743869e+00  7.0000474480052448e+00  7.0043597041412760e+00  7.0085404691329973e+00  7.0125938006767479e+00  7.0165236305693020e+00  7.0203337684660481e+00  7.0240279055434360e+00  7.0276096180667107e+00  7.0310823708639267e+00  7.0344495207075441e+00  7.0377143196048237e+00  7.0408799179984474e+00  7.0439493678788194e+00  7.0469256258095765e+00  7.0498115558679224e+00  7.0526099325013822e+00  7.0553234433026644e+00  7.0579546917043388e+00  7.0605061995950571e+00  7.0629804098590432e+00  7.0653796888406157e+00  7.0677063287354880e+00  7.0699625499106098e+00  7.0721505031543277e+00  7.0742722718585576e+00  7.0763298741347533e+00  7.0783252648653692e+00  7.0802603376925397e+00  7.0821369269456032e+00  7.0839568095092327e+00  7.0857217066337244e+00  7.0874332856891060e+00  7.0890931618646302e+00  7.0907028998152377e+00  7.0922640152565180e+00  7.0937779765096325e+00  7.0952462059977490e+00  7.0966700816953496e+00  7.0980509385318840e+00  7.0993900697510925e+00  7.1006887282274080e+00  7.1019481277407071e+00  7.1031694442106827e+00  7.1043538168921225e+00  7.1055023495323146e+00  7.1066161114916984e+00  7.1076961388289934e+00  7.1087434353518830e+00  7.1097589736343494e+00  7.1107436960017134e+00  7.1116985154844148e+00  7.1126243167415533e+00  7.1135219569550987e+00  7.1143922666957868e+00  7.1152360507615890e+00  7.1160540889896176e+00  7.1168471370423996e+00  7.1176159271693393e+00  7.1183611689441681e+00  7.1190835499792691e+00  7.1197837366175909e+00  7.1204623746029760e+00  7.1211200897296933e+00  7.1217574884718395e+00  7.1223751585934760e+00  7.1229736697400989e+00  7.1235535740122593e+00  7.1241154065220007e+00  7.1246596859327989e+00  7.1251869149836926e+00  7.1256975809982466e+00  7.1261921563790223e+00  7.1266710990881155e+00  7.1271348531143834e+00  7.1275838489279248e+00  7.1280185039222737e+00  7.1284392228448548e+00  7.1288463982160506e+00  7.1292404107373342e+00  7.1296216296887271e+00  7.1299904133158734e+00  7.1303471092069355e+00  7.1306920546594315e+00  7.1310255770370947e+00  7.1313479941167710e+00  7.1316596144252937e+00  7.1319607375662386e+00  7.1322516545363790e+00  7.1325326480316402e+00  7.1328039927423319e+00  7.1330659556373366e+00  7.1333187962369902e+00  7.1335627668743591e+00  7.1337981129445849e+00  7.1340250731420465e+00  7.1342438796850445e+00  7.1344547585278519e+00  7.1346579295598795e+00  7.1348536067919177e+00  7.1350419985293678e+00  7.1352233075325220e+00  7.1353977311639261e+00  7.1355654615231279e+00  7.1357266855689518e+00  7.1358815852297255e+00  7.1360303375018450e+00  7.1361731145371730e+00  7.1363100837198212e+00  7.1364414077329386e+00  7.1365672446161597e+00  7.1366877478143840e+00  7.1368030662186399e+00  7.1369133441997556e+00  7.1370187216355561e+00  7.1371193339323424e+00  7.1372153120413699e+00  7.1373067824709882e+00  7.1373938672951445e+00  7.1374766841588135e+00  7.1375553462809789e+00  7.1376299624556578e+00  7.1377006370514104e+00  7.1377674700098250e+00  7.1378305568432694e+00  7.1378899886322138e+00  7.1379458520224359e+00  7.1379982292222364e+00  7.1380471979998878e+00  7.1380928316813650e+00  7.1381351991484809e+00  7.1381743648374627e+00  7.1382103887379467e+00  7.1382433263924234e+00  7.1382732288960682e+00  7.1383001428969415e+00  7.1383241105964625e+00  7.1383451697501208e+00  7.1383633536683675e+00  7.1383786912175697e+00  7.1383912068210247e+00  7.1384009204598984e+00  7.1384078476741042e+00  7.1384119995630364e+00  7.1384133827860916e+00  7.1384119995630329e+00  7.1384078476741033e+00  7.1384009204598966e+00  7.1383912068210229e+00  7.1383786912175688e+00  7.1383633536683675e+00  7.1383451697501217e+00  7.1383241105964643e+00  7.1383001428969441e+00  7.1382732288960682e+00  7.1382433263924243e+00  7.1382103887379476e+00  7.1381743648374645e+00  7.1381351991484827e+00  7.1380928316813677e+00  7.1380471979998896e+00  7.1379982292222373e+00  7.1379458520224333e+00  7.1378899886322111e+00  7.1378305568432650e+00  7.1377674700098224e+00  7.1377006370514078e+00  7.1376299624556561e+00  7.1375553462809815e+00  7.1374766841588135e+00  7.1373938672951445e+00  7.1373067824709890e+00  7.1372153120413699e+00  7.1371193339323433e+00  7.1370187216355587e+00  7.1369133441997574e+00  7.1368030662186399e+00  7.1366877478143840e+00  7.1365672446161597e+00  7.1364414077329403e+00  7.1363100837198212e+00  7.1361731145371730e+00  7.1360303375018468e+00  7.1358815852297264e+00  7.1357266855689518e+00  7.1355654615231270e+00  7.1353977311639234e+00  7.1352233075325184e+00  7.1350419985293687e+00  7.1348536067919150e+00  7.1346579295598787e+00  7.1344547585278510e+00  7.1342438796850436e+00  7.1340250731420438e+00  7.1337981129445840e+00  7.1335627668743591e+00  7.1333187962369866e+00  7.1330659556373304e+00  7.1328039927423283e+00  7.1325326480316367e+00  7.1322516545363728e+00  7.1319607375662368e+00  7.1316596144252911e+00  7.1313479941167657e+00  7.1310255770370903e+00  7.1306920546594279e+00  7.1303471092069328e+00  7.1299904133158716e+00  7.1296216296887254e+00  7.1292404107373351e+00  7.1288463982160524e+00  7.1284392228448556e+00  7.1280185039222781e+00  7.1275838489279266e+00  7.1271348531143861e+00  7.1266710990881155e+00  7.1261921563790223e+00  7.1256975809982483e+00  7.1251869149836935e+00  7.1246596859328006e+00  7.1241154065219998e+00  7.1235535740122558e+00  7.1229736697400945e+00  7.1223751585934743e+00  7.1217574884718360e+00  7.1211200897296862e+00  7.1204623746029716e+00  7.1197837366175847e+00  7.1190835499792682e+00  7.1183611689441681e+00  7.1176159271693384e+00  7.1168471370423978e+00  7.1160540889896122e+00  7.1152360507615864e+00  7.1143922666957842e+00  7.1135219569550943e+00  7.1126243167415515e+00  7.1116985154844139e+00  7.1107436960017099e+00  7.1097589736343476e+00  7.1087434353518812e+00  7.1076961388289908e+00  7.1066161114916966e+00  7.1055023495323146e+00  7.1043538168921216e+00  7.1031694442106801e+00  7.1019481277407053e+00  7.1006887282274072e+00  7.0993900697510908e+00  7.0980509385318848e+00  7.0966700816953532e+00  7.0952462059977526e+00  7.0937779765096360e+00  7.0922640152565197e+00  7.0907028998152422e+00  7.0890931618646293e+00  7.0874332856891078e+00  7.0857217066337270e+00  7.0839568095092345e+00  7.0821369269456032e+00  7.0802603376925397e+00  7.0783252648653701e+00  7.0763298741347525e+00  7.0742722718585549e+00  7.0721505031543304e+00  7.0699625499106133e+00  7.0677063287354907e+00  7.0653796888406193e+00  7.0629804098590450e+00  7.0605061995950562e+00  7.0579546917043388e+00  7.0553234433026653e+00  7.0526099325013867e+00  7.0498115558679268e+00  7.0469256258095774e+00  7.0439493678788212e+00  7.0408799179984509e+00  7.0377143196048273e+00  7.0344495207075468e+00  7.0310823708639267e+00  7.0276096180667125e+00  7.0240279055434369e+00  7.0203337684660463e+00  7.0165236305693002e+00  7.0125938006767479e+00  7.0085404691329991e+00  7.0043597041412742e+00  7.0000474480052430e+00  6.9955995132743816e+00  6.9910115787922207e+00  6.9862791856470334e+00  6.9813977330247470e+00  6.9763624739641203e+00  6.9711685110143815e+00  6.9658107917960077e+00  6.9602841044654014e+00  6.9545830730848195e+00  6.9487021528990924e+00  6.9426356255212625e+00  6.9363775940295955e+00  6.9299219779790624e+00  6.9232625083308683e+00  6.9163927223042370e+00  6.9093059581553442e+00  6.9019953498890345e+00  6.8944538219096740e+00  6.8866740836185008e+00  6.8786486239656019e+00  6.8703697059658291e+00  6.8618293611889234e+00  6.8530193842354628e+00  6.8439313272113917e+00  6.8345564942154633e+00  6.8248859358552787e+00  6.8149104438093895e+00  6.8046205454545783e+00  6.7940064985794342e+00  6.7830582862073650e+00  6.7717656115543798e+00  6.7601178931494008e+00  6.7481042601473913e+00  6.7357135478683858e+00  6.7229342935984233e+00  6.7097547326915743e+00  6.6961627950157014e+00  6.6821461017881436e+00  6.6676919628515048e+00  6.6527873744438981e+00  6.6374190175223440e+00  6.6215732567029439e+00  6.6052361398864079e+00  6.5883933986429231e+00  6.5710304494362095e+00  6.5531323957724892e+00  6.5346840313669095e+00  6.5156698444264203e+00  6.4960740231557432e+00  6.4758804626004682e+00  6.4550727729495465e+00  6.4336342894278564e+00  6.4115480839184924e+00  6.3887969784637333e+00  6.3653635608033721e+00  6.3412302021192763e+00  6.3163790771654584e+00  6.2907921869738797e+00  6.2644513843372565e+00  6.2373384022815692e+00  6.2094348857524775e+00  6.1807224267515011e+00  6.1511826031694294e+00  6.1207970215757790e+00  6.0895473642343934e+00  6.0574154406257028e+00  6.0243832437661764e+00  5.9904330116242406e+00  5.9555472939395813e+00  5.9197090247584390e+00  5.8829016010013397e+00  5.8451089673806162e+00  5.8063157079830843e+00  5.7665071448270222e+00  5.7256694436921318e+00  5.6837897275048492e+00  5.6408561975388656e+00  5.5968582626604784e+00  5.5517866768095141e+00  5.5056336848575116e+00  5.4583931769242229e+00  5.4100608511596251e+00  5.3606343849099876e+00  5.3101136140808229e+00  5.2585007203855136e+00  5.2058004260232895e+00  5.1520201951627111e+00  5.0971704414145176e+00  5.0412647402590007e+00  4.9843200451465153e+00  4.9263569057139946e+00  4.8673996862549158e+00  4.8074767822453417e+00  4.7466208323655117e+00  4.6848689230674774e+00  4.6222627823286073e+00  4.5588489588045027e+00  4.4946789821612700e+00  4.4298094999370861e+00  4.3643023858711070e+00  4.2982248142607347e+00  4.2316492945875455e+00  4.1646536604119353e+00  4.0973210064045968e+00  4.0297395673901786e+00  3.9620025334575670e+00  3.8942077955757832e+00  3.8264576167774593e+00  3.7588582248623803e+00  3.6915193237556023e+00  3.6245535221422602e+00  3.5580756797962119e+00  3.4922021741074856e+00  3.4270500916601612e+00  3.3627363522615119e+00  3.2993767754954844e+00  3.2370851025658531e+00  3.1759719887831266e+00  3.1161439843943808e+00  3.0577025234086004e+00  3.0007429414840230e+00  2.9453535446836696e+00  2.8916147508608043e+00  2.8395983245344230e+00  2.7893667243308702e+00  2.7409725794301081e+00  2.6944583080509164e+00  2.6498558869794300e+00  2.6071867766787209e+00  2.5664620018356969e+00  2.5276823825456729e+00  2.4908389069428822e+00  2.4559132321756918e+00  2.4228782973801168e+00  2.3916990298570946e+00  2.3623331240832579e+00  2.3347318724983790e+00  2.3088410271763062e+00  2.2846016724138116e+00  2.2619510898410247e+00  2.2408235997226145e+00  2.2211513645256149e+00  2.2028651434246962e+00  2.1858949890583581e+00  2.1701708804187878e+00  2.1556232881568591e+00  2.1421836707405277e+00  2.1297849017735389e+00  2.1183616303385180e+00  2.1078505774705603e+00  2.0981907728061469e+00  2.0893237361110839e+00  2.0811936088010419e+00  2.0737472407644524e+00  2.0669342378165285e+00  2.0607069749907017e+00  2.0550205806432689e+00  2.0498328960384615e+00  2.0451044147204582e+00  2.0407982055879983e+00  2.0368798231840595e+00  2.0333172083114226e+00  2.0300805816957648e+00  2.0271423330485652e+00  2.0244769075380709e+00  2.0220606913607706e+00  2.0198718978199368e+00  2.0178904550620524e+00  2.0160978963956189e+00  2.0144772539187077e+00  2.0130129560098311e+00  2.0116907290891439e+00  2.0104975039316320e+00  2.0094213267083427e+00  2.0084512748438508e+00  2.0075773777058616e+00  2.0067905420841385e+00  2.0060824823690706e+00  2.0054456553034807e+00  2.0048731991531499e+00  2.0043588771208336e+00  2.0038970248139472e+00  2.0034825015666597e+00  2.0031106454118994e+00  2.0027772314970420e+00  2.0024784337380