<?xml version="1.0"?>
<VTKFile type="UnstructuredGrid"  version="0.1"  >
<UnstructuredGrid>
<Piece  NumberOfPoints="1001" NumberOfCells="1000">
<Points>
<DataArray  type="Float64"  NumberOfComponents="3"  format="ascii">0 0 0  0.001 0 0  0.002 0 0  0.003 0 0  0.004 0 0  0.005 0 0  0.006 0 0  0.007 0 0  0.008 0 0  0.008999999999999999 0 0  0.01 0 0  0.011 0 0  0.012 0 0  0.013 0 0  0.014 0 0  0.015 0 0  0.016 0 0  0.017 0 0  0.018 0 0  0.019 0 0  0.02 0 0  0.021 0 0  0.022 0 0  0.023 0 0  0.024 0 0  0.025 0 0  0.026 0 0  0.027 0 0  0.028 0 0  0.029 0 0  0.03 0 0  0.031 0 0  0.032 0 0  0.033 0 0  0.034 0 0  0.035 0 0  0.036 0 0  0.037 0 0  0.038 0 0  0.039 0 0  0.04 0 0  0.041 0 0  0.042 0 0  0.043 0 0  0.044 0 0  0.045 0 0  0.046 0 0  0.047 0 0  0.048 0 0  0.049 0 0  0.05 0 0  0.051 0 0  0.052 0 0  0.053 0 0  0.054 0 0  0.055 0 0  0.056 0 0  0.057 0 0  0.058 0 0  0.059 0 0  0.06 0 0  0.061 0 0  0.062 0 0  0.063 0 0  0.064 0 0  0.065 0 0  0.066 0 0  0.067 0 0  0.068 0 0  0.06900000000000001 0 0  0.07000000000000001 0 0  0.07099999999999999 0 0  0.07199999999999999 0 0  0.073 0 0  0.074 0 0  0.075 0 0  0.076 0 0  0.077 0 0  0.078 0 0  0.079 0 0  0.08 0 0  0.081 0 0  0.082 0 0  0.083 0 0  0.08400000000000001 0 0  0.08500000000000001 0 0  0.08599999999999999 0 0  0.08699999999999999 0 0  0.08799999999999999 0 0  0.089 0 0  0.09 0 0  0.091 0 0  0.092 0 0  0.093 0 0  0.094 0 0  0.095 0 0  0.096 0 0  0.097 0 0  0.098 0 0  0.099 0 0  0.1 0 0  0.101 0 0  0.102 0 0  0.103 0 0  0.104 0 0  0.105 0 0  0.106 0 0  0.107 0 0  0.108 0 0  0.109 0 0  0.11 0 0  0.111 0 0  0.112 0 0  0.113 0 0  0.114 0 0  0.115 0 0  0.116 0 0  0.117 0 0  0.118 0 0  0.119 0 0  0.12 0 0  0.121 0 0  0.122 0 0  0.123 0 0  0.124 0 0  0.125 0 0  0.126 0 0  0.127 0 0  0.128 0 0  0.129 0 0  0.13 0 0  0.131 0 0  0.132 0 0  0.133 0 0  0.134 0 0  0.135 0 0  0.136 0 0  0.137 0 0  0.138 0 0  0.139 0 0  0.14 0 0  0.141 0 0  0.142 0 0  0.143 0 0  0.144 0 0  0.145 0 0  0.146 0 0  0.147 0 0  0.148 0 0  0.149 0 0  0.15 0 0  0.151 0 0  0.152 0 0  0.153 0 0  0.154 0 0  0.155 0 0  0.156 0 0  0.157 0 0  0.158 0 0  0.159 0 0  0.16 0 0  0.161 0 0  0.162 0 0  0.163 0 0  0.164 0 0  0.165 0 0  0.166 0 0  0.167 0 0  0.168 0 0  0.169 0 0  0.17 0 0  0.171 0 0  0.172 0 0  0.173 0 0  0.174 0 0  0.175 0 0  0.176 0 0  0.177 0 0  0.178 0 0  0.179 0 0  0.18 0 0  0.181 0 0  0.182 0 0  0.183 0 0  0.184 0 0  0.185 0 0  0.186 0 0  0.187 0 0  0.188 0 0  0.189 0 0  0.19 0 0  0.191 0 0  0.192 0 0  0.193 0 0  0.194 0 0  0.195 0 0  0.196 0 0  0.197 0 0  0.198 0 0  0.199 0 0  0.2 0 0  0.201 0 0  0.202 0 0  0.203 0 0  0.204 0 0  0.205 0 0  0.206 0 0  0.207 0 0  0.208 0 0  0.209 0 0  0.21 0 0  0.211 0 0  0.212 0 0  0.213 0 0  0.214 0 0  0.215 0 0  0.216 0 0  0.217 0 0  0.218 0 0  0.219 0 0  0.22 0 0  0.221 0 0  0.222 0 0  0.223 0 0  0.224 0 0  0.225 0 0  0.226 0 0  0.227 0 0  0.228 0 0  0.229 0 0  0.23 0 0  0.231 0 0  0.232 0 0  0.233 0 0  0.234 0 0  0.235 0 0  0.236 0 0  0.237 0 0  0.238 0 0  0.239 0 0  0.24 0 0  0.241 0 0  0.242 0 0  0.243 0 0  0.244 0 0  0.245 0 0  0.246 0 0  0.247 0 0  0.248 0 0  0.249 0 0  0.25 0 0  0.251 0 0  0.252 0 0  0.253 0 0  0.254 0 0  0.255 0 0  0.256 0 0  0.257 0 0  0.258 0 0  0.259 0 0  0.26 0 0  0.261 0 0  0.262 0 0  0.263 0 0  0.264 0 0  0.265 0 0  0.266 0 0  0.267 0 0  0.268 0 0  0.269 0 0  0.27 0 0  0.271 0 0  0.272 0 0  0.273 0 0  0.274 0 0  0.275 0 0  0.276 0 0  0.277 0 0  0.278 0 0  0.279 0 0  0.28 0 0  0.281 0 0  0.282 0 0  0.283 0 0  0.284 0 0  0.285 0 0  0.286 0 0  0.287 0 0  0.288 0 0  0.289 0 0  0.29 0 0  0.291 0 0  0.292 0 0  0.293 0 0  0.294 0 0  0.295 0 0  0.296 0 0  0.297 0 0  0.298 0 0  0.299 0 0  0.3 0 0  0.301 0 0  0.302 0 0  0.303 0 0  0.304 0 0  0.305 0 0  0.306 0 0  0.307 0 0  0.308 0 0  0.309 0 0  0.31 0 0  0.311 0 0  0.312 0 0  0.313 0 0  0.314 0 0  0.315 0 0  0.316 0 0  0.317 0 0  0.318 0 0  0.319 0 0  0.32 0 0  0.321 0 0  0.322 0 0  0.323 0 0  0.324 0 0  0.325 0 0  0.326 0 0  0.327 0 0  0.328 0 0  0.329 0 0  0.33 0 0  0.331 0 0  0.332 0 0  0.333 0 0  0.334 0 0  0.335 0 0  0.336 0 0  0.337 0 0  0.338 0 0  0.339 0 0  0.34 0 0  0.341 0 0  0.342 0 0  0.343 0 0  0.344 0 0  0.345 0 0  0.346 0 0  0.347 0 0  0.348 0 0  0.349 0 0  0.35 0 0  0.351 0 0  0.352 0 0  0.353 0 0  0.354 0 0  0.355 0 0  0.356 0 0  0.357 0 0  0.358 0 0  0.359 0 0  0.36 0 0  0.361 0 0  0.362 0 0  0.363 0 0  0.364 0 0  0.365 0 0  0.366 0 0  0.367 0 0  0.368 0 0  0.369 0 0  0.37 0 0  0.371 0 0  0.372 0 0  0.373 0 0  0.374 0 0  0.375 0 0  0.376 0 0  0.377 0 0  0.378 0 0  0.379 0 0  0.38 0 0  0.381 0 0  0.382 0 0  0.383 0 0  0.384 0 0  0.385 0 0  0.386 0 0  0.387 0 0  0.388 0 0  0.389 0 0  0.39 0 0  0.391 0 0  0.392 0 0  0.393 0 0  0.394 0 0  0.395 0 0  0.396 0 0  0.397 0 0  0.398 0 0  0.399 0 0  0.4 0 0  0.401 0 0  0.402 0 0  0.403 0 0  0.404 0 0  0.405 0 0  0.406 0 0  0.407 0 0  0.408 0 0  0.409 0 0  0.41 0 0  0.411 0 0  0.412 0 0  0.413 0 0  0.414 0 0  0.415 0 0  0.416 0 0  0.417 0 0  0.418 0 0  0.419 0 0  0.42 0 0  0.421 0 0  0.422 0 0  0.423 0 0  0.424 0 0  0.425 0 0  0.426 0 0  0.427 0 0  0.428 0 0  0.429 0 0  0.43 0 0  0.431 0 0  0.432 0 0  0.433 0 0  0.434 0 0  0.435 0 0  0.436 0 0  0.437 0 0  0.438 0 0  0.439 0 0  0.44 0 0  0.441 0 0  0.442 0 0  0.443 0 0  0.444 0 0  0.445 0 0  0.446 0 0  0.447 0 0  0.448 0 0  0.449 0 0  0.45 0 0  0.451 0 0  0.452 0 0  0.453 0 0  0.454 0 0  0.455 0 0  0.456 0 0  0.457 0 0  0.458 0 0  0.459 0 0  0.46 0 0  0.461 0 0  0.462 0 0  0.463 0 0  0.464 0 0  0.465 0 0  0.466 0 0  0.467 0 0  0.468 0 0  0.469 0 0  0.47 0 0  0.471 0 0  0.472 0 0  0.473 0 0  0.474 0 0  0.475 0 0  0.476 0 0  0.477 0 0  0.478 0 0  0.479 0 0  0.48 0 0  0.481 0 0  0.482 0 0  0.483 0 0  0.484 0 0  0.485 0 0  0.486 0 0  0.487 0 0  0.488 0 0  0.489 0 0  0.49 0 0  0.491 0 0  0.492 0 0  0.493 0 0  0.494 0 0  0.495 0 0  0.496 0 0  0.497 0 0  0.498 0 0  0.499 0 0  0.5 0 0  0.501 0 0  0.502 0 0  0.503 0 0  0.504 0 0  0.505 0 0  0.506 0 0  0.507 0 0  0.508 0 0  0.509 0 0  0.51 0 0  0.511 0 0  0.512 0 0  0.513 0 0  0.514 0 0  0.515 0 0  0.516 0 0  0.517 0 0  0.518 0 0  0.519 0 0  0.52 0 0  0.521 0 0  0.522 0 0  0.523 0 0  0.524 0 0  0.525 0 0  0.526 0 0  0.527 0 0  0.528 0 0  0.529 0 0  0.53 0 0  0.531 0 0  0.532 0 0  0.533 0 0  0.534 0 0  0.535 0 0  0.536 0 0  0.537 0 0  0.538 0 0  0.539 0 0  0.54 0 0  0.541 0 0  0.542 0 0  0.543 0 0  0.544 0 0  0.545 0 0  0.546 0 0  0.547 0 0  0.548 0 0  0.549 0 0  0.55 0 0  0.551 0 0  0.552 0 0  0.553 0 0  0.554 0 0  0.555 0 0  0.556 0 0  0.5570000000000001 0 0  0.5580000000000001 0 0  0.5590000000000001 0 0  0.5600000000000001 0 0  0.5610000000000001 0 0  0.5620000000000001 0 0  0.5629999999999999 0 0  0.5639999999999999 0 0  0.5649999999999999 0 0  0.5659999999999999 0 0  0.5669999999999999 0 0  0.5679999999999999 0 0  0.569 0 0  0.57 0 0  0.571 0 0  0.572 0 0  0.573 0 0  0.574 0 0  0.575 0 0  0.576 0 0  0.577 0 0  0.578 0 0  0.579 0 0  0.58 0 0  0.581 0 0  0.582 0 0  0.583 0 0  0.584 0 0  0.585 0 0  0.586 0 0  0.587 0 0  0.588 0 0  0.589 0 0  0.59 0 0  0.591 0 0  0.592 0 0  0.593 0 0  0.594 0 0  0.595 0 0  0.596 0 0  0.597 0 0  0.598 0 0  0.599 0 0  0.6 0 0  0.601 0 0  0.602 0 0  0.603 0 0  0.604 0 0  0.605 0 0  0.606 0 0  0.607 0 0  0.608 0 0  0.609 0 0  0.61 0 0  0.611 0 0  0.612 0 0  0.613 0 0  0.614 0 0  0.615 0 0  0.616 0 0  0.617 0 0  0.618 0 0  0.619 0 0  0.62 0 0  0.621 0 0  0.622 0 0  0.623 0 0  0.624 0 0  0.625 0 0  0.626 0 0  0.627 0 0  0.628 0 0  0.629 0 0  0.63 0 0  0.631 0 0  0.632 0 0  0.633 0 0  0.634 0 0  0.635 0 0  0.636 0 0  0.637 0 0  0.638 0 0  0.639 0 0  0.64 0 0  0.641 0 0  0.642 0 0  0.643 0 0  0.644 0 0  0.645 0 0  0.646 0 0  0.647 0 0  0.648 0 0  0.649 0 0  0.65 0 0  0.651 0 0  0.652 0 0  0.653 0 0  0.654 0 0  0.655 0 0  0.656 0 0  0.657 0 0  0.658 0 0  0.659 0 0  0.66 0 0  0.661 0 0  0.662 0 0  0.663 0 0  0.664 0 0  0.665 0 0  0.666 0 0  0.667 0 0  0.668 0 0  0.669 0 0  0.67 0 0  0.671 0 0  0.672 0 0  0.673 0 0  0.674 0 0  0.675 0 0  0.676 0 0  0.677 0 0  0.678 0 0  0.679 0 0  0.68 0 0  0.681 0 0  0.6820000000000001 0 0  0.6830000000000001 0 0  0.6840000000000001 0 0  0.6850000000000001 0 0  0.6860000000000001 0 0  0.6870000000000001 0 0  0.6879999999999999 0 0  0.6889999999999999 0 0  0.6899999999999999 0 0  0.6909999999999999 0 0  0.6919999999999999 0 0  0.6929999999999999 0 0  0.694 0 0  0.695 0 0  0.696 0 0  0.697 0 0  0.698 0 0  0.699 0 0  0.7 0 0  0.701 0 0  0.702 0 0  0.703 0 0  0.704 0 0  0.705 0 0  0.706 0 0  0.707 0 0  0.708 0 0  0.709 0 0  0.71 0 0  0.711 0 0  0.712 0 0  0.713 0 0  0.714 0 0  0.715 0 0  0.716 0 0  0.717 0 0  0.718 0 0  0.719 0 0  0.72 0 0  0.721 0 0  0.722 0 0  0.723 0 0  0.724 0 0  0.725 0 0  0.726 0 0  0.727 0 0  0.728 0 0  0.729 0 0  0.73 0 0  0.731 0 0  0.732 0 0  0.733 0 0  0.734 0 0  0.735 0 0  0.736 0 0  0.737 0 0  0.738 0 0  0.739 0 0  0.74 0 0  0.741 0 0  0.742 0 0  0.743 0 0  0.744 0 0  0.745 0 0  0.746 0 0  0.747 0 0  0.748 0 0  0.749 0 0  0.75 0 0  0.751 0 0  0.752 0 0  0.753 0 0  0.754 0 0  0.755 0 0  0.756 0 0  0.757 0 0  0.758 0 0  0.759 0 0  0.76 0 0  0.761 0 0  0.762 0 0  0.763 0 0  0.764 0 0  0.765 0 0  0.766 0 0  0.767 0 0  0.768 0 0  0.769 0 0  0.77 0 0  0.771 0 0  0.772 0 0  0.773 0 0  0.774 0 0  0.775 0 0  0.776 0 0  0.777 0 0  0.778 0 0  0.779 0 0  0.78 0 0  0.781 0 0  0.782 0 0  0.783 0 0  0.784 0 0  0.785 0 0  0.786 0 0  0.787 0 0  0.788 0 0  0.789 0 0  0.79 0 0  0.791 0 0  0.792 0 0  0.793 0 0  0.794 0 0  0.795 0 0  0.796 0 0  0.797 0 0  0.798 0 0  0.799 0 0  0.8 0 0  0.801 0 0  0.802 0 0  0.803 0 0  0.804 0 0  0.805 0 0  0.806 0 0  0.8070000000000001 0 0  0.8080000000000001 0 0  0.8090000000000001 0 0  0.8100000000000001 0 0  0.8110000000000001 0 0  0.8120000000000001 0 0  0.8129999999999999 0 0  0.8139999999999999 0 0  0.8149999999999999 0 0  0.8159999999999999 0 0  0.8169999999999999 0 0  0.8179999999999999 0 0  0.819 0 0  0.82 0 0  0.821 0 0  0.822 0 0  0.823 0 0  0.824 0 0  0.825 0 0  0.826 0 0  0.827 0 0  0.828 0 0  0.829 0 0  0.83 0 0  0.831 0 0  0.832 0 0  0.833 0 0  0.834 0 0  0.835 0 0  0.836 0 0  0.837 0 0  0.838 0 0  0.839 0 0  0.84 0 0  0.841 0 0  0
[...]
<PointData  Scalars="f_20-0"> 
<DataArray  type="Float64"  Name="f_20-0"  format="ascii">2.0005462858540675e+00  2.0005496627121748e+00  2.0005598310083936e+00  2.0005769042772901e+00  2.0006010729756247e+00  2.0006326063413136e+00  2.0006718550165044e+00  2.0007192544553742e+00  2.0007753291433401e+00  2.0008406976605078e+00  2.0009160786284950e+00  2.0010022975862034e+00  2.0011002948467267e+00  2.0012111343944143e+00  2.0013360138880825e+00  2.0014762758435909e+00  2.0016334200763928e+00  2.0018091174922783e+00  2.0020052253222977e+00  2.0022238039057751e+00  2.0024671351333683e+00  2.0027377426702122e+00  2.0030384140872686e+00  2.0033722250369599e+00  2.0037425656169292e+00  2.0041531690731054e+00  2.0046081430000888e+00  2.0051120032029113e+00  2.0056697103892156e+00  2.0062867098645487e+00  2.0069689744053769e+00  2.0077230504841639e+00  2.0085561080178329e+00  2.0094759938046978e+00  2.0104912888045563e+00  2.0116113694014874e+00  2.0128464727679516e+00  2.0142077664209412e+00  2.0157074220251290e+00  2.0173586934527163e+00  2.0191759990536231e+00  2.0211750080211321e+00  2.0233727306553662e+00  2.0257876122282870e+00  2.0284396300371617e+00  2.0313503930969894e+00  2.0345432437641775e+00  2.0380433604021495e+00  2.0418778599931344e+00  2.0460758993682093e+00  2.0506687734692313e+00  2.0556900087723280e+00  2.0611754496946193e+00  2.0671633354770687e+00  2.0736943646917960e+00  2.0808117441689151e+00  2.0885612187859386e+00  2.0969910782245940e+00  2.1061521364916977e+00  2.1160976797418574e+00  2.1268833777533316e+00  2.1385671543204698e+00  2.1512090118658667e+00  2.1648708057734409e+00  2.1796159643313806e+00  2.1955091507809632e+00  2.2126158648196714e+00  2.2310019820237450e+00  2.2507332310455173e+00  2.2718746101000642e+00  2.2944897461627831e+00  2.3186402024138562e+00  2.3443847417251109e+00  2.3717785563060856e+00  2.4008724759053193e+00  2.4317121690798538e+00  2.4643373538700351e+00  2.4987810356154512e+00  2.5350687904961262e+00  2.5732181135752121e+00  2.6132378495789483e+00  2.6551277233396644e+00  2.6988779847574889e+00  2.7444691803649213e+00  2.7918720602129952e+00  2.8410476249885379e+00  2.8919473142017909e+00  2.9445133321545001e+00  2.9986791044168366e+00  3.0543698539012540e+00  3.1115032824911952e+00  3.1699903416929933e+00  3.2297360740162633e+00  3.2906405057886237e+00  3.3525995718653547e+00  3.4155060531517449e+00  3.4792505089298711e+00  3.5437221875624765e+00  3.6088099011107282e+00  3.6744028516221938e+00  3.7403913991972617e+00  3.8066677643150495e+00  3.8731266591981943e+00  3.9396658451437352e+00  4.0061866146882430e+00  4.0725941991725154e+00  4.1387981037049295e+00  4.2047123726885856e+00  4.2702557899830724e+00  4.3353520184340137e+00  4.3999296839453477e+00  4.4639224095176067e+00  4.5272688047588083e+00  4.5899124163216509e+00  4.6518016445589057e+00  4.7128896314436464e+00  4.7731341244946695e+00  4.8324973211002327e+00  4.8909456972614160e+00  4.9484498243941593e+00  5.0049841774470636e+00  5.0605269372194632e+00  5.1150597894069980e+00  5.1685677225651148e+00  5.2210388268672094e+00  5.2724640952455362e+00  5.3228372282402168e+00  5.3721544436447246e+00  5.4204142918243123e+00  5.4676174773961144e+00  5.5137666877945710e+00  5.5588664291018244e+00  5.6029228693983457e+00  5.6459436897821123e+00  5.6879379431140613e+00  5.7289159204711302e+00  5.7688890252246328e+00  5.8078696546094495e+00  5.8458710886073897e+00  5.8829073859343177e+00  5.9189932868947803e+00  5.9541441228482643e+00  5.9883757320173396e+00  6.0217043813587603e+00  6.0541466942134425e+00  6.0857195834494453e+00  6.1164401898131704e+00  6.1463258252071524e+00  6.1753939206181858e+00  6.2036619784260623e+00  6.2311475288311389e+00  6.2578680901476158e+00  6.2838411327188917e+00  6.3090840462211535e+00  6.3336141101315384e+00  6.3574484671475426e+00  6.3806040993546134e+00  6.4030978069492352e+00  6.4249461893348352e+00  6.4461656284179432e+00  6.4667722739414977e+00  6.4867820307017956e+00  6.5062105475044865e+00  6.5250732077238673e+00  6.5433851213380096e+00  6.5611611183203138e+00  6.5784157432757153e+00  6.5951632512170324e+00  6.6114176043838651e+00  6.6271924700129983e+00  6.6425012189754824e+00  6.6573569252013751e+00  6.6717723658187058e+00  6.6857600219384459e+00  6.6993320800220877e+00  6.7125004337731387e+00  6.7252766864981099e+00  6.7376721538866855e+00  6.7496978671644685e+00  6.7613645765753771e+00  6.7726827551540527e+00  6.7836626027516962e+00  6.7943140502817503e+00  6.8046467641545325e+00  6.8146701508723657e+00  6.8243933617592747e+00  6.8338252978013747e+00  6.8429746145761374e+00  6.8518497272507437e+00  6.8604588156312687e+00  6.8688098292463513e+00  6.8769104924502651e+00  6.8847683095319114e+00  6.8923905698174188e+00  6.8997843527553631e+00  6.9069565329746156e+00  6.9139137853059669e+00  6.9206625897595364e+00  6.9272092364509490e+00  6.9335598304699717e+00  6.9397202966861222e+00  6.9456963844864292e+00  6.9514936724411305e+00  6.9571175728936909e+00  6.9625733364720963e+00  6.9678660565187567e+00  6.9730006734369399e+00  6.9779819789519024e+00  6.9828146202854517e+00  6.9875031042427782e+00  6.9920518012109234e+00  6.9964649490683888e+00  7.0007466570056724e+00  7.0049009092567989e+00  7.0089315687420468e+00  7.0128423806222893e+00  7.0166369757655414e+00  7.0203188741264695e+00  7.0238914880396690e+00  7.0273581254277131e+00  7.0307219929250921e+00  7.0339861989191581e+00  7.0371537565093512e+00  7.0402275863860169e+00  7.0432105196302146e+00  7.0461053004358876e+00  7.0489145887559310e+00  7.0516409628735754e+00  7.0542869219006805e+00  7.0568548882044277e+00  7.0593472097640095e+00  7.0617661624588628e+00  7.0641139522900112e+00  7.0663927175361172e+00  7.0686045308457723e+00  7.0707514012676196e+00  7.0728352762198616e+00  7.0748580434006616e+00  7.0768215326409782e+00  7.0787275177013740e+00  7.0805777180142195e+00  7.0823738003728316e+00  7.0841173805689293e+00  7.0858100249798754e+00  7.0874532521070694e+00  7.0890485340668929e+00  7.0905972980355152e+00  7.0921009276489366e+00  7.0935607643594896e+00  7.0949781087501256e+00  7.0963542218076840e+00  7.0976903261563793e+00  7.0989876072526616e+00  7.1002472145426285e+00  7.1014702625830868e+00  7.1026578321273952e+00  7.1038109711771176e+00  7.1049306960005616e+00  7.1060179921191899e+00  7.1070738152629191e+00  7.1080990922952472e+00  7.1090947221091367e+00  7.1100615764946067e+00  7.1110005009788475e+00  7.1119123156397830e+00  7.1127978158938809e+00  7.1136577732590105e+00  7.1144929360931739e+00  7.1153040303098312e+00  7.1160917600705815e+00  7.1168568084559398e+00  7.1175998381148400e+00  7.1183214918936271e+00  7.1190223934451318e+00  7.1197031478184627e+00  7.1203643420302036e+00  7.1210065456175000e+00  7.1216303111737229e+00  7.1222361748671990e+00  7.1228246569435649e+00  7.1233962622123155e+00  7.1239514805179747e+00  7.1244907871964624e+00  7.1250146435170869e+00  7.1255234971106267e+00  7.1260177823839914e+00  7.1264979209218327e+00  7.1269643218755769e+00  7.1274173823402496e+00  7.1278574877195249e+00  7.1282850120793180e+00  7.1287003184903668e+00  7.1291037593600786e+00  7.1294956767540612e+00  7.1298764027076000e+00  7.1302462595274605e+00  7.1306055600843079e+00  7.1309546080960322e+00  7.1312936984022768e+00  7.1316231172304780e+00  7.1319431424536477e+00  7.1322540438401951e+00  7.1325560832960271e+00  7.1328495150991742e+00  7.1331345861271940e+00  7.1334115360775705e+00  7.1336805976813240e+00  7.1339419969100781e+00  7.1341959531767634e+00  7.1344426795301858e+00  7.1346823828435992e+00  7.1349152639975744e+00  7.1351415180572362e+00  7.1353613344441102e+00  7.1355748971027468e+00  7.1357823846622530e+00  7.1359839705929362e+00  7.1361798233581775e+00  7.1363701065617136e+00  7.1365549790904463e+00  7.1367345952529471e+00  7.1369091049137658e+00  7.1370786536236883e+00  7.1372433827460657e+00  7.1374034295793622e+00  7.1375589274759754e+00  7.1377100059575245e+00  7.1378567908266790e+00  7.1379994042756012e+00  7.1381379649911789e+00  7.1382725882571112e+00  7.1384033860529028e+00  7.1385304671499581e+00  7.1386539372047695e+00  7.1387738988493670e+00  7.1388904517790559e+00  7.1390036928375435e+00  7.1391137160995477e+00  7.1392206129509788e+00  7.1393244721666944e+00  7.1394253799860108e+00  7.1395234201859443e+00  7.1396186741523042e+00  7.1397112209486862e+00  7.1398011373834374e+00  7.1398884980746420e+00  7.1399733755132013e+00  7.1400558401240612e+00  7.1401359603256349e+00  7.1402138025874935e+00  7.1402894314863561e+00  7.1403629097604506e+00  7.1404342983622708e+00  7.1405036565098063e+00  7.1405710417362673e+00  7.1406365099383695e+00  7.1407001154231891e+00  7.1407619109536808e+00  7.1408219477928494e+00  7.1408802757466594e+00  7.1409369432056682e+00  7.1409919971854743e+00  7.1410454833659935e+00  7.1410974461295673e+00  7.1411479285980084e+00  7.1411969726685474e+00  7.1412446190487398e+00  7.1412909072903803e+00  7.1413358758224268e+00  7.1413795619829683e+00  7.1414220020502936e+00  7.1414632312730273e+00  7.1415032838994481e+00  7.1415421932059102e+00  7.1415799915244964e+00  7.1416167102698207e+00  7.1416523799651319e+00  7.1416870302676001e+00  7.1417206899929226e+00  7.1417533871392038e+00  7.1417851489101549e+00  7.1418160017376362e+00  7.1418459713035372e+00  7.1418750825610644e+00  7.1419033597553687e+00  7.1419308264436427e+00  7.1419575055145970e+00  7.1419834192074090e+00  7.1420085891301124e+00  7.1420330362774829e+00  7.1420567810483879e+00  7.1420798432626738e+00  7.1421022421775406e+00  7.1421239965034768e+00  7.1421451244197272e+00  7.1421656435893208e+00  7.1421855711736804e+00  7.1422049238468039e+00  7.1422237178090580e+00  7.1422419688005707e+00  7.1422596921142416e+00  7.1422769026083968e+00  7.1422936147190628e+00  7.1423098424719136e+00  7.1423255994938675e+00  7.1423408990243633e+00  7.1423557539262950e+00  7.1423701766966659e+00  7.1423841794769283e+00  7.1423977740630171e+00  7.1424109719151208e+00  7.1424237841671534e+00  7.1424362216359834e+00  7.1424482948303707e+00  7.1424600139596706e+00  7.1424713889422886e+00  7.1424824294138780e+00  7.1424931447353233e+00  7.1425035440004887e+00  7.1425136360437449e+00  7.1425234294472721e+00  7.1425329325481774e+00  7.1425421534453744e+00  7.1425511000063002e+00  7.1425597798734124e+00  7.1425682004705084e+00  7.1425763690088644e+00  7.1425842924931962e+00  7.1425919777274389e+00  7.1425994313203640e+00  7.1426066596910323e+00  7.1426136690740778e+00  7.1426204655248462e+00  7.1426270549243807e+00  7.1426334429842511e+00  7.1426396352512418e+00  7.1426456371118912e+00  7.1426514537969101e+00  7.1426570903854554e+00  7.1426625518092655e+00  7.1426678428566763e+00  7.1426729681765142e+00  7.1426779322818534e+00  7.1426827395536705e+00  7.1426873942443665e+00  7.1426919004811902e+00  7.1426962622695331e+00  7.1427004834961298e+00  7.1427045679321406e+00  7.1427085192361455e+00  7.1427123409570132e+00  7.1427160365366928e+00  7.1427196093128931e+00  7.1427230625216813e+00  7.1427263992999741e+00  7.1427296226879440e+00  7.1427327356313439e+00  7.1427357409837358e+00  7.1427386415086351e+00  7.1427414398815898e+00  7.1427441386921444e+00  7.1427467404457738e+00  7.1427492475656935e+00  7.1427516623946294e+00  7.1427539871964907e+00  7.1427562241580036e+00  7.1427583753902377e+00  7.1427604429301006e+00  7.1427624287417411e+00  7.1427643347179108e+00  7.1427661626812506e+00  7.1427679143855265e+00  7.1427695915167932e+00  7.1427711956945261e+00  7.1427727284726732e+00  7.1427741913406768e+00  7.1427755857244275e+00  7.1427769129871717e+00  7.1427781744303873e+00  7.1427793712945853e+00  7.1427805047600899e+00  7.1427815759477564e+00  7.1427825859196750e+00  7.1427835356797891e+00  7.1427844261745159e+00  7.1427852582933022e+00  7.1427860328691590e+00  7.1427867506791385e+00  7.1427874124447923e+00  7.1427880188325998e+00  7.1427885704543348e+00  7.1427890678674304e+00  7.1427895115752840e+00  7.1427899020275563e+00  7.1427902396204050e+00  7.1427905246967347e+00  7.1427907575463658e+00  7.1427909384062014e+00  7.1427910674603670e+00  7.1427911448403094e+00  7.1427911706248643e+00  7.1427911448403050e+00  7.1427910674603643e+00  7.1427909384061996e+00  7.1427907575463641e+00  7.1427905246967347e+00  7.1427902396204059e+00  7.1427899020275571e+00  7.1427895115752866e+00  7.1427890678674313e+00  7.1427885704543348e+00  7.1427880188325998e+00  7.1427874124447905e+00  7.1427867506791332e+00  7.1427860328691555e+00  7.1427852582933014e+00  7.1427844261745141e+00  7.1427835356797891e+00  7.1427825859196741e+00  7.1427815759477564e+00  7.1427805047600863e+00  7.1427793712945826e+00  7.1427781744303838e+00  7.1427769129871699e+00  7.1427755857244248e+00  7.1427741913406750e+00  7.1427727284726723e+00  7.1427711956945226e+00  7.1427695915167924e+00  7.1427679143855283e+00  7.1427661626812551e+00  7.1427643347179135e+00  7.1427624287417419e+00  7.1427604429300997e+00  7.1427583753902359e+00  7.1427562241580000e+00  7.1427539871964898e+00  7.1427516623946277e+00  7.1427492475656962e+00  7.1427467404457747e+00  7.1427441386921453e+00  7.1427414398815881e+00  7.1427386415086360e+00  7.1427357409837358e+00  7.1427327356313448e+00  7.1427296226879449e+00  7.1427263992999723e+00  7.1427230625216795e+00  7.1427196093128904e+00  7.1427160365366884e+00  7.1427123409570106e+00  7.1427085192361437e+00  7.1427045679321379e+00  7.1427004834961281e+00  7.1426962622695331e+00  7.1426919004811893e+00  7.1426873942443647e+00  7.1426827395536661e+00  7.1426779322818499e+00  7.1426729681765098e+00  7.1426678428566710e+00  7.1426625518092592e+00  7.1426570903854509e+00  7.1426514537969030e+00  7.1426456371118840e+00  7.1426396352512374e+00  7.1426334429842511e+00  7.1426270549243807e+00  7.1426204655248444e+00  7.1426136690740760e+00  7.1426066596910314e+00  7.1425994313203631e+00  7.1425919777274380e+00  7.1425842924931953e+00  7.1425763690088626e+00  7.1425682004705049e+00  7.1425597798734097e+00  7.1425511000063011e+00  7.1425421534453770e+00  7.1425329325481810e+00  7.1425234294472766e+00  7.1425136360437467e+00  7.1425035440004914e+00  7.1424931447353233e+00  7.1424824294138771e+00  7.1424713889422877e+00  7.1424600139596706e+00  7.1424482948303707e+00  7.1424362216359851e+00  7.1424237841671552e+00  7.1424109719151190e+00  7.1423977740630162e+00  7.1423841794769274e+00  7.1423701766966667e+00  7.1423557539262950e+00  7.1423408990243633e+00  7.1423255994938684e+00  7.1423098424719127e+00  7.1422936147190592e+00  7.1422769026083950e+00  7.1422596921142398e+00  7.1422419688005663e+00  7.1422237178090562e+00  7.1422049238468022e+00  7.1421855711736795e+00  7.1421656435893199e+00  7.1421451244197263e+00  7.1421239965034751e+00  7.1421022421775398e+00  7.1420798432626738e+00  7.1420567810483879e+00  7.1420330362774829e+00  7.1420085891301150e+00  7.1419834192074108e+00  7.1419575055145996e+00  7.1419308264436436e+00  7.1419033597553669e+00  7.1418750825610644e+00  7.1418459713035398e+00  7.1418160017376380e+00  7.1417851489101576e+00  7.1417533871392047e+00  7.1417206899929235e+00  7.1416870302676001e+00  7.1416523799651319e+00  7.1416167102698216e+00  7.1415799915244973e+00  7.1415421932059129e+00  7.1415032838994490e+00  7.1414632312730282e+00  7.1414220020502901e+00  7.1413795619829656e+00  7.1413358758224241e+00  7.1412909072903785e+00  7.1412446190487389e+00  7.1411969726685482e+00  7.1411479285980093e+00  7.1410974461295673e+00  7.1410454833659935e+00  7.1409919971854761e+00  7.1409369432056682e+00  7.1408802757466594e+00  7.1408219477928503e+00  7.1407619109536808e+00  7.1407001154231891e+00  7.1406365099383722e+00  7.1405710417362700e+00  7.1405036565098081e+00  7.1404342983622673e+00  7.1403629097604506e+00  7.1402894314863552e+00  7.1402138025874908e+00  7.1401359603256314e+00  7.1400558401240586e+00  7.1399733755131978e+00  7.1398884980746402e+00  7.1398011373834382e+00  7.1397112209486879e+00  7.1396186741523069e+00  7.1395234201859497e+00  7.1394253799860143e+00  7.1393244721666944e+00  7.1392206129509779e+00  7.1391137160995504e+00  7.1390036928375444e+00  7.1388904517790595e+00  7.1387738988493705e+00  7.1386539372047713e+00  7.1385304671499599e+00  7.1384033860529064e+00  7.1382725882571121e+00  7.1381379649911789e+00  7.1379994042755950e+00  7.1378567908266728e+00  7.1377100059575209e+00  7.1375589274759719e+00  7.1374034295793631e+00  7.1372433827460666e+00  7.1370786536236874e+00  7.1369091049137650e+00  7.1367345952529444e+00  7.1365549790904410e+00  7.1363701065617082e+00  7.1361798233581766e+00  7.1359839705929353e+00  7.1357823846622539e+00  7.1355748971027477e+00  7.1353613344441094e+00  7.1351415180572353e+00  7.1349152639975753e+00  7.1346823828436001e+00  7.1344426795301867e+00  7.1341959531767696e+00  7.1339419969100790e+00  7.1336805976813258e+00  7.1334115360775723e+00  7.1331345861271949e+00  7.1328495150991706e+00  7.1325560832960218e+00  7.1322540438401907e+00  7.1319431424536432e+00  7.1316231172304754e+00  7.1312936984022759e+00  7.1309546080960322e+00  7.1306055600843079e+00  7.1302462595274605e+00  7.1298764027075991e+00  7.1294956767540594e+00  7.1291037593600759e+00  7.1287003184903650e+00  7.1282850120793162e+00  7.1278574877195240e+00  7.1274173823402478e+00  7.1269643218755760e+00  7.1264979209218327e+00  7.1260177823839905e+00  7.1255234971106267e+00  7.1250146435170869e+00  7.1244907871964633e+00  7.1239514805179764e+00  7.1233962622123181e+00  7.1228246569435667e+00  7.1222361748671990e+00  7.1216303111737211e+00  7.1210065456174982e+00  7.1203643420302010e+00  7.1197031478184609e+00  7.1190223934451309e+00  7.1183214918936297e+00  7.1175998381148418e+00  7.1168568084559407e+00  7.1160917600705842e+00  7.1153040303098312e+00  7.1144929360931766e+00  7.1136577732590123e+00  7.1127978158938809e+00  7.1119123156397839e+00  7.1110005009788475e+00  7.1100615764946067e+00  7.1090947221091403e+00  7.1080990922952481e+00  7.1070738152629227e+00  7.1060179921191917e+00  7.1049306960005643e+00  7.1038109711771193e+00  7.1026578321273970e+00  7.1014702625830850e+00  7.1002472145426276e+00  7.0989876072526608e+00  7.0976903261563784e+00  7.0963542218076840e+00  7.0949781087501265e+00  7.0935607643594913e+00  7.0921009276489384e+00  7.0905972980355179e+00  7.0890485340668938e+00  7.0874532521070677e+00  7.0858100249798763e+00  7.0841173805689284e+00  7.0823738003728280e+00  7.0805777180142160e+00  7.0787275177013704e+00  7.0768215326409747e+00  7.0748580434006607e+00  7.0728352762198625e+00  7.0707514012676196e+00  7.0686045308457723e+00  7.0663927175361172e+00  7.0641139522900138e+00  7.0617661624588619e+00  7.0593472097640069e+00  7.0568548882044242e+00  7.0542869219006787e+00  7.0516409628735737e+00  7.0489145887559284e+00  7.0461053004358849e+00  7.0432105196302146e+00  7.0402275863860195e+00  7.0371537565093538e+00  7.0339861989191625e+00  7.0307219929250966e+00  7.0273581254277158e+00  7.0238914880396690e+00  7.0203188741264704e+00  7.0166369757655378e+00  7.0128423806222875e+00  7.0089315687420495e+00  7.0049009092567998e+00  7.0007466570056751e+00  6.9964649490683888e+00  6.9920518012109252e+00  6.9875031042427782e+00  6.9828146202854517e+00  6.9779819789519015e+00  6.9730006734369399e+00  6.9678660565187585e+00  6.9625733364720945e+00  6.9571175728936909e+00  6.9514936724411314e+00  6.9456963844864310e+00  6.9397202966861267e+00  6.9335598304699753e+00  6.9272092364509525e+00  6.9206625897595417e+00  6.9139137853059713e+00  6.9069565329746228e+00  6.8997843527553693e+00  6.8923905698174224e+00  6.8847683095319123e+00  6.8769104924502651e+00  6.8688098292463513e+00  6.8604588156312696e+00  6.8518497272507428e+00  6.8429746145761436e+00  6.8338252978013756e+00  6.8243933617592791e+00  6.8146701508723639e+00  6.8046467641545316e+00  6.7943140502817503e+00  6.7836626027516953e+00  6.7726827551540527e+00  6.7613645765753780e+00  6.7496978671644676e+00  6.7376721538866855e+00  6.7252766864981091e+00  6.7125004337731360e+00  6.6993320800220904e+00  6.6857600219384494e+00  6.6717723658187102e+00  6.6573569252013