<?xml version="1.0"?>
<VTKFile type="UnstructuredGrid"  version="0.1"  >
<UnstructuredGrid>
<Piece  NumberOfPoints="1001" NumberOfCells="1000">
<Points>
<DataArray  type="Float64"  NumberOfComponents="3"  format="ascii">0 0 0  0.001 0 0  0.002 0 0  0.003 0 0  0.004 0 0  0.005 0 0  0.006 0 0  0.007 0 0  0.008 0 0  0.008999999999999999 0 0  0.01 0 0  0.011 0 0  0.012 0 0  0.013 0 0  0.014 0 0  0.015 0 0  0.016 0 0  0.017 0 0  0.018 0 0  0.019 0 0  0.02 0 0  0.021 0 0  0.022 0 0  0.023 0 0  0.024 0 0  0.025 0 0  0.026 0 0  0.027 0 0  0.028 0 0  0.029 0 0  0.03 0 0  0.031 0 0  0.032 0 0  0.033 0 0  0.034 0 0  0.035 0 0  0.036 0 0  0.037 0 0  0.038 0 0  0.039 0 0  0.04 0 0  0.041 0 0  0.042 0 0  0.043 0 0  0.044 0 0  0.045 0 0  0.046 0 0  0.047 0 0  0.048 0 0  0.049 0 0  0.05 0 0  0.051 0 0  0.052 0 0  0.053 0 0  0.054 0 0  0.055 0 0  0.056 0 0  0.057 0 0  0.058 0 0  0.059 0 0  0.06 0 0  0.061 0 0  0.062 0 0  0.063 0 0  0.064 0 0  0.065 0 0  0.066 0 0  0.067 0 0  0.068 0 0  0.06900000000000001 0 0  0.07000000000000001 0 0  0.07099999999999999 0 0  0.07199999999999999 0 0  0.073 0 0  0.074 0 0  0.075 0 0  0.076 0 0  0.077 0 0  0.078 0 0  0.079 0 0  0.08 0 0  0.081 0 0  0.082 0 0  0.083 0 0  0.08400000000000001 0 0  0.08500000000000001 0 0  0.08599999999999999 0 0  0.08699999999999999 0 0  0.08799999999999999 0 0  0.089 0 0  0.09 0 0  0.091 0 0  0.092 0 0  0.093 0 0  0.094 0 0  0.095 0 0  0.096 0 0  0.097 0 0  0.098 0 0  0.099 0 0  0.1 0 0  0.101 0 0  0.102 0 0  0.103 0 0  0.104 0 0  0.105 0 0  0.106 0 0  0.107 0 0  0.108 0 0  0.109 0 0  0.11 0 0  0.111 0 0  0.112 0 0  0.113 0 0  0.114 0 0  0.115 0 0  0.116 0 0  0.117 0 0  0.118 0 0  0.119 0 0  0.12 0 0  0.121 0 0  0.122 0 0  0.123 0 0  0.124 0 0  0.125 0 0  0.126 0 0  0.127 0 0  0.128 0 0  0.129 0 0  0.13 0 0  0.131 0 0  0.132 0 0  0.133 0 0  0.134 0 0  0.135 0 0  0.136 0 0  0.137 0 0  0.138 0 0  0.139 0 0  0.14 0 0  0.141 0 0  0.142 0 0  0.143 0 0  0.144 0 0  0.145 0 0  0.146 0 0  0.147 0 0  0.148 0 0  0.149 0 0  0.15 0 0  0.151 0 0  0.152 0 0  0.153 0 0  0.154 0 0  0.155 0 0  0.156 0 0  0.157 0 0  0.158 0 0  0.159 0 0  0.16 0 0  0.161 0 0  0.162 0 0  0.163 0 0  0.164 0 0  0.165 0 0  0.166 0 0  0.167 0 0  0.168 0 0  0.169 0 0  0.17 0 0  0.171 0 0  0.172 0 0  0.173 0 0  0.174 0 0  0.175 0 0  0.176 0 0  0.177 0 0  0.178 0 0  0.179 0 0  0.18 0 0  0.181 0 0  0.182 0 0  0.183 0 0  0.184 0 0  0.185 0 0  0.186 0 0  0.187 0 0  0.188 0 0  0.189 0 0  0.19 0 0  0.191 0 0  0.192 0 0  0.193 0 0  0.194 0 0  0.195 0 0  0.196 0 0  0.197 0 0  0.198 0 0  0.199 0 0  0.2 0 0  0.201 0 0  0.202 0 0  0.203 0 0  0.204 0 0  0.205 0 0  0.206 0 0  0.207 0 0  0.208 0 0  0.209 0 0  0.21 0 0  0.211 0 0  0.212 0 0  0.213 0 0  0.214 0 0  0.215 0 0  0.216 0 0  0.217 0 0  0.218 0 0  0.219 0 0  0.22 0 0  0.221 0 0  0.222 0 0  0.223 0 0  0.224 0 0  0.225 0 0  0.226 0 0  0.227 0 0  0.228 0 0  0.229 0 0  0.23 0 0  0.231 0 0  0.232 0 0  0.233 0 0  0.234 0 0  0.235 0 0  0.236 0 0  0.237 0 0  0.238 0 0  0.239 0 0  0.24 0 0  0.241 0 0  0.242 0 0  0.243 0 0  0.244 0 0  0.245 0 0  0.246 0 0  0.247 0 0  0.248 0 0  0.249 0 0  0.25 0 0  0.251 0 0  0.252 0 0  0.253 0 0  0.254 0 0  0.255 0 0  0.256 0 0  0.257 0 0  0.258 0 0  0.259 0 0  0.26 0 0  0.261 0 0  0.262 0 0  0.263 0 0  0.264 0 0  0.265 0 0  0.266 0 0  0.267 0 0  0.268 0 0  0.269 0 0  0.27 0 0  0.271 0 0  0.272 0 0  0.273 0 0  0.274 0 0  0.275 0 0  0.276 0 0  0.277 0 0  0.278 0 0  0.279 0 0  0.28 0 0  0.281 0 0  0.282 0 0  0.283 0 0  0.284 0 0  0.285 0 0  0.286 0 0  0.287 0 0  0.288 0 0  0.289 0 0  0.29 0 0  0.291 0 0  0.292 0 0  0.293 0 0  0.294 0 0  0.295 0 0  0.296 0 0  0.297 0 0  0.298 0 0  0.299 0 0  0.3 0 0  0.301 0 0  0.302 0 0  0.303 0 0  0.304 0 0  0.305 0 0  0.306 0 0  0.307 0 0  0.308 0 0  0.309 0 0  0.31 0 0  0.311 0 0  0.312 0 0  0.313 0 0  0.314 0 0  0.315 0 0  0.316 0 0  0.317 0 0  0.318 0 0  0.319 0 0  0.32 0 0  0.321 0 0  0.322 0 0  0.323 0 0  0.324 0 0  0.325 0 0  0.326 0 0  0.327 0 0  0.328 0 0  0.329 0 0  0.33 0 0  0.331 0 0  0.332 0 0  0.333 0 0  0.334 0 0  0.335 0 0  0.336 0 0  0.337 0 0  0.338 0 0  0.339 0 0  0.34 0 0  0.341 0 0  0.342 0 0  0.343 0 0  0.344 0 0  0.345 0 0  0.346 0 0  0.347 0 0  0.348 0 0  0.349 0 0  0.35 0 0  0.351 0 0  0.352 0 0  0.353 0 0  0.354 0 0  0.355 0 0  0.356 0 0  0.357 0 0  0.358 0 0  0.359 0 0  0.36 0 0  0.361 0 0  0.362 0 0  0.363 0 0  0.364 0 0  0.365 0 0  0.366 0 0  0.367 0 0  0.368 0 0  0.369 0 0  0.37 0 0  0.371 0 0  0.372 0 0  0.373 0 0  0.374 0 0  0.375 0 0  0.376 0 0  0.377 0 0  0.378 0 0  0.379 0 0  0.38 0 0  0.381 0 0  0.382 0 0  0.383 0 0  0.384 0 0  0.385 0 0  0.386 0 0  0.387 0 0  0.388 0 0  0.389 0 0  0.39 0 0  0.391 0 0  0.392 0 0  0.393 0 0  0.394 0 0  0.395 0 0  0.396 0 0  0.397 0 0  0.398 0 0  0.399 0 0  0.4 0 0  0.401 0 0  0.402 0 0  0.403 0 0  0.404 0 0  0.405 0 0  0.406 0 0  0.407 0 0  0.408 0 0  0.409 0 0  0.41 0 0  0.411 0 0  0.412 0 0  0.413 0 0  0.414 0 0  0.415 0 0  0.416 0 0  0.417 0 0  0.418 0 0  0.419 0 0  0.42 0 0  0.421 0 0  0.422 0 0  0.423 0 0  0.424 0 0  0.425 0 0  0.426 0 0  0.427 0 0  0.428 0 0  0.429 0 0  0.43 0 0  0.431 0 0  0.432 0 0  0.433 0 0  0.434 0 0  0.435 0 0  0.436 0 0  0.437 0 0  0.438 0 0  0.439 0 0  0.44 0 0  0.441 0 0  0.442 0 0  0.443 0 0  0.444 0 0  0.445 0 0  0.446 0 0  0.447 0 0  0.448 0 0  0.449 0 0  0.45 0 0  0.451 0 0  0.452 0 0  0.453 0 0  0.454 0 0  0.455 0 0  0.456 0 0  0.457 0 0  0.458 0 0  0.459 0 0  0.46 0 0  0.461 0 0  0.462 0 0  0.463 0 0  0.464 0 0  0.465 0 0  0.466 0 0  0.467 0 0  0.468 0 0  0.469 0 0  0.47 0 0  0.471 0 0  0.472 0 0  0.473 0 0  0.474 0 0  0.475 0 0  0.476 0 0  0.477 0 0  0.478 0 0  0.479 0 0  0.48 0 0  0.481 0 0  0.482 0 0  0.483 0 0  0.484 0 0  0.485 0 0  0.486 0 0  0.487 0 0  0.488 0 0  0.489 0 0  0.49 0 0  0.491 0 0  0.492 0 0  0.493 0 0  0.494 0 0  0.495 0 0  0.496 0 0  0.497 0 0  0.498 0 0  0.499 0 0  0.5 0 0  0.501 0 0  0.502 0 0  0.503 0 0  0.504 0 0  0.505 0 0  0.506 0 0  0.507 0 0  0.508 0 0  0.509 0 0  0.51 0 0  0.511 0 0  0.512 0 0  0.513 0 0  0.514 0 0  0.515 0 0  0.516 0 0  0.517 0 0  0.518 0 0  0.519 0 0  0.52 0 0  0.521 0 0  0.522 0 0  0.523 0 0  0.524 0 0  0.525 0 0  0.526 0 0  0.527 0 0  0.528 0 0  0.529 0 0  0.53 0 0  0.531 0 0  0.532 0 0  0.533 0 0  0.534 0 0  0.535 0 0  0.536 0 0  0.537 0 0  0.538 0 0  0.539 0 0  0.54 0 0  0.541 0 0  0.542 0 0  0.543 0 0  0.544 0 0  0.545 0 0  0.546 0 0  0.547 0 0  0.548 0 0  0.549 0 0  0.55 0 0  0.551 0 0  0.552 0 0  0.553 0 0  0.554 0 0  0.555 0 0  0.556 0 0  0.5570000000000001 0 0  0.5580000000000001 0 0  0.5590000000000001 0 0  0.5600000000000001 0 0  0.5610000000000001 0 0  0.5620000000000001 0 0  0.5629999999999999 0 0  0.5639999999999999 0 0  0.5649999999999999 0 0  0.5659999999999999 0 0  0.5669999999999999 0 0  0.5679999999999999 0 0  0.569 0 0  0.57 0 0  0.571 0 0  0.572 0 0  0.573 0 0  0.574 0 0  0.575 0 0  0.576 0 0  0.577 0 0  0.578 0 0  0.579 0 0  0.58 0 0  0.581 0 0  0.582 0 0  0.583 0 0  0.584 0 0  0.585 0 0  0.586 0 0  0.587 0 0  0.588 0 0  0.589 0 0  0.59 0 0  0.591 0 0  0.592 0 0  0.593 0 0  0.594 0 0  0.595 0 0  0.596 0 0  0.597 0 0  0.598 0 0  0.599 0 0  0.6 0 0  0.601 0 0  0.602 0 0  0.603 0 0  0.604 0 0  0.605 0 0  0.606 0 0  0.607 0 0  0.608 0 0  0.609 0 0  0.61 0 0  0.611 0 0  0.612 0 0  0.613 0 0  0.614 0 0  0.615 0 0  0.616 0 0  0.617 0 0  0.618 0 0  0.619 0 0  0.62 0 0  0.621 0 0  0.622 0 0  0.623 0 0  0.624 0 0  0.625 0 0  0.626 0 0  0.627 0 0  0.628 0 0  0.629 0 0  0.63 0 0  0.631 0 0  0.632 0 0  0.633 0 0  0.634 0 0  0.635 0 0  0.636 0 0  0.637 0 0  0.638 0 0  0.639 0 0  0.64 0 0  0.641 0 0  0.642 0 0  0.643 0 0  0.644 0 0  0.645 0 0  0.646 0 0  0.647 0 0  0.648 0 0  0.649 0 0  0.65 0 0  0.651 0 0  0.652 0 0  0.653 0 0  0.654 0 0  0.655 0 0  0.656 0 0  0.657 0 0  0.658 0 0  0.659 0 0  0.66 0 0  0.661 0 0  0.662 0 0  0.663 0 0  0.664 0 0  0.665 0 0  0.666 0 0  0.667 0 0  0.668 0 0  0.669 0 0  0.67 0 0  0.671 0 0  0.672 0 0  0.673 0 0  0.674 0 0  0.675 0 0  0.676 0 0  0.677 0 0  0.678 0 0  0.679 0 0  0.68 0 0  0.681 0 0  0.6820000000000001 0 0  0.6830000000000001 0 0  0.6840000000000001 0 0  0.6850000000000001 0 0  0.6860000000000001 0 0  0.6870000000000001 0 0  0.6879999999999999 0 0  0.6889999999999999 0 0  0.6899999999999999 0 0  0.6909999999999999 0 0  0.6919999999999999 0 0  0.6929999999999999 0 0  0.694 0 0  0.695 0 0  0.696 0 0  0.697 0 0  0.698 0 0  0.699 0 0  0.7 0 0  0.701 0 0  0.702 0 0  0.703 0 0  0.704 0 0  0.705 0 0  0.706 0 0  0.707 0 0  0.708 0 0  0.709 0 0  0.71 0 0  0.711 0 0  0.712 0 0  0.713 0 0  0.714 0 0  0.715 0 0  0.716 0 0  0.717 0 0  0.718 0 0  0.719 0 0  0.72 0 0  0.721 0 0  0.722 0 0  0.723 0 0  0.724 0 0  0.725 0 0  0.726 0 0  0.727 0 0  0.728 0 0  0.729 0 0  0.73 0 0  0.731 0 0  0.732 0 0  0.733 0 0  0.734 0 0  0.735 0 0  0.736 0 0  0.737 0 0  0.738 0 0  0.739 0 0  0.74 0 0  0.741 0 0  0.742 0 0  0.743 0 0  0.744 0 0  0.745 0 0  0.746 0 0  0.747 0 0  0.748 0 0  0.749 0 0  0.75 0 0  0.751 0 0  0.752 0 0  0.753 0 0  0.754 0 0  0.755 0 0  0.756 0 0  0.757 0 0  0.758 0 0  0.759 0 0  0.76 0 0  0.761 0 0  0.762 0 0  0.763 0 0  0.764 0 0  0.765 0 0  0.766 0 0  0.767 0 0  0.768 0 0  0.769 0 0  0.77 0 0  0.771 0 0  0.772 0 0  0.773 0 0  0.774 0 0  0.775 0 0  0.776 0 0  0.777 0 0  0.778 0 0  0.779 0 0  0.78 0 0  0.781 0 0  0.782 0 0  0.783 0 0  0.784 0 0  0.785 0 0  0.786 0 0  0.787 0 0  0.788 0 0  0.789 0 0  0.79 0 0  0.791 0 0  0.792 0 0  0.793 0 0  0.794 0 0  0.795 0 0  0.796 0 0  0.797 0 0  0.798 0 0  0.799 0 0  0.8 0 0  0.801 0 0  0.802 0 0  0.803 0 0  0.804 0 0  0.805 0 0  0.806 0 0  0.8070000000000001 0 0  0.8080000000000001 0 0  0.8090000000000001 0 0  0.8100000000000001 0 0  0.8110000000000001 0 0  0.8120000000000001 0 0  0.8129999999999999 0 0  0.8139999999999999 0 0  0.8149999999999999 0 0  0.8159999999999999 0 0  0.8169999999999999 0 0  0.8179999999999999 0 0  0.819 0 0  0.82 0 0  0.821 0 0  0.822 0 0  0.823 0 0  0.824 0 0  0.825 0 0  0.826 0 0  0.827 0 0  0.828 0 0  0.829 0 0  0.83 0 0  0.831 0 0  0.832 0 0  0.833 0 0  0.834 0 0  0.835 0 0  0.836 0 0  0.837 0 0  0.838 0 0  0.839 0 0  0.84 0 0  0.841 0 0  0
[...]
<PointData  Scalars="f_20-0"> 
<DataArray  type="Float64"  Name="f_20-0"  format="ascii">2.0371121854937839e+00  2.0372865924468506e+00  2.0378110956049964e+00  2.0386895455433294e+00  2.0399283720424188e+00  2.0415366019501393e+00  2.0435258834391248e+00  2.0459105158953159e+00  2.0487074844333275e+00  2.0519364977796020e+00  2.0556200279925818e+00  2.0597833501991820e+00  2.0644545802186447e+00  2.0696647076196739e+00  2.0754476214177222e+00  2.0818401252714716e+00  2.0888819386885578e+00  2.0966156804107463e+00  2.1050868298316057e+00  2.1143436620220757e+00  2.1244371517215170e+00  2.1354208415175941e+00  2.1473506694144202e+00  2.1602847511038572e+00  2.1742831125400968e+00  2.1894073689025619e+00  2.2057203467442705e+00  2.2232856470846216e+00  2.2421671484314403e+00  2.2624284502102885e+00  2.2841322588278756e+00  2.3073397205718336e+00  2.3321097077020685e+00  2.3584980663491182e+00  2.3865568371116366e+00  2.4163334614290655e+00  2.4478699887740758e+00  2.4812023013328277e+00  2.5163593739922154e+00  2.5533625880167534e+00  2.5922251166819428e+00  2.6329514002769137e+00  2.6755367262799918e+00  2.7199669281765724e+00  2.7662182134074782e+00  2.8142571274318198e+00  2.8640406570227555e+00  2.9155164718758795e+00  2.9686232995990984e+00  3.0232914253682077e+00  3.0794433041544922e+00  3.1369942706099576e+00  3.1958533295422575e+00  3.2559240084893384e+00  3.3171052532306411e+00  3.3792923471203102e+00  3.4423778358334589e+00  3.5062524403845861e+00  3.5708059429939381e+00  3.6359280324193781e+00  3.7015090976142919e+00  3.7674409608998705e+00  3.8336175441497513e+00  3.8999354636902037e+00  3.9662945516534722e+00  4.0325983033374646e+00  4.0987542516928626e+00  4.1646742713655041e+00  4.2302748157680501e+00  4.2954770914518008e+00  4.3602071746156712e+00  4.4243960749494180e+00  4.4879797521888749e+00  4.5508990907906686e+00  4.6130998380402133e+00  4.6745325107156850e+00  4.7351522751662642e+00  4.7949188053461729e+00  4.8537961229950186e+00  4.9117524237854120e+00  4.9687598928827583e+00  5.0247945129898772e+00  5.0798358675881872e+00  5.1338669417432934e+00  5.1868739225198315e+00  5.2388460007510016e+00  5.2897751756336415e+00  5.3396560633704384e+00  5.3884857108567061e+00  5.4362634152093499e+00  5.4829905497589069e+00  5.5286703969705728e+00  5.5733079886253192e+00  5.6169099534758944e+00  5.6594843724929378e+00  5.7010406417321970e+00  5.7415893427829783e+00  5.7811421206993190e+00  5.8197115692673735e+00  5.8573111234237869e+00  5.8939549586092443e+00  5.9296578968181270e+00  5.9644353190876167e+00  5.9983030841575928e+00  6.0312774530248614e+00  6.0633750191112989e+00  6.0946126437646457e+00  6.1250073968123209e+00  6.1545765018925769e+00  6.1833372862928071e+00  6.2113071350317650e+00  6.2385034489304481e+00  6.2649436064251711e+00  6.2906449288857624e+00  6.3156246492115962e+00  6.3398998834881661e+00  6.3634876054971148e+00  6.3864046238826910e+00  6.4086675617877669e+00  6.4302928387823357e+00  6.4512966549172628e+00  6.4716949767453196e+00  6.4915035251607991e+00  6.5107377649178071e+00  6.5294128956957262e+00  6.5475438445886169e+00  6.5651452599029598e+00  6.5822315061556367e+00  6.5988166601710780e+00  6.6149145081831895e+00  6.6305385438540272e+00  6.6457019671271995e+00  6.6604176838396372e+00  6.6746983060207370e+00  6.6885561528129083e+00  6.7020032519523332e+00  6.7150513417531270e+00  6.7277118735424235e+00  6.7399960144976543e+00  6.7519146508411181e+00  6.7634783913502892e+00  6.7746975711456052e+00  6.7855822557204259e+00  6.7961422451807110e+00  6.8063870786645317e+00  6.8163260389140925e+00  6.8259681569750565e+00  6.8353222170002361e+00  6.8443967611366174e+00  6.8532000944764810e+00  6.8617402900552129e+00  6.8700251938798376e+00  6.8780624299738884e+00  6.8858594054255047e+00  6.8934233154269933e+00  6.9007611482951372e+00  6.9078796904627833e+00  6.9147855314330382e+00  6.9214850686885327e+00  6.9279845125488562e+00  6.9342898909702093e+00  6.9404070542819891e+00  6.9463416798556263e+00  6.9520992767016923e+00  6.9576851899918362e+00  6.9631046055025330e+00  6.9683625539782517e+00  6.9734639154119442e+00  6.9784134232412161e+00  6.9832156684588877e+00  6.9878751036369637e+00  6.9923960468633730e+00  6.9967826855910298e+00  7.0010390803990932e+00  7.0051691686664626e+00  7.0091767681577934e+00  7.0130655805224356e+00  7.0168391947069280e+00  7.0205010902817699e+00  7.0240546406833300e+00  7.0275031163718795e+00  7.0308496879068541e+00  7.0340974289404299e+00  7.0372493191307672e+00  7.0403082469761085e+00  7.0432770125711821e+00  7.0461583302872741e+00  7.0489548313774089e+00  7.0516690665081461e+00  7.0543035082194585e+00  7.0568605533142534e+00  7.0593425251790247e+00  7.0617516760372263e+00  7.0640901891368619e+00  7.0663601808738861e+00  7.0685637028529227e+00  7.0707027438868781e+00  7.0727792319369005e+00  7.0747950359942866e+00  7.0767519679057820e+00  7.0786517841437497e+00  7.0804961875227050e+00  7.0822868288636318e+00  7.0840253086074991e+00  7.0857131783793976e+00  7.0873519425046396e+00  7.0889430594781766e+00  7.0904879433886911e+00  7.0919879652986051e+00  7.0934444545813138e+00  7.0948587002168457e+00  7.0962319520472397e+00  7.0975654219927256e+00  7.0988602852299456e+00  7.1001176813333222e+00  7.1013387153806526e+00  7.1025244590240693e+00  7.1036759515273413e+00  7.1047942007705931e+00  7.1058801842234143e+00  7.1069348498873444e+00  7.1079591172086483e+00  7.1089538779623362e+00  7.1099199971083014e+00  7.1108583136204269e+00  7.1117696412895537e+00  7.1126547695010691e+00  7.1135144639879604e+00  7.1143494675600838e+00  7.1151605008103838e+00  7.1159482627988346e+00  7.1167134317147678e+00  7.1174566655182936e+00  7.1181786025614624e+00  7.1188798621898490e+00  7.1195610453251250e+00  7.1202227350292766e+00  7.1208654970510308e+00  7.1214898803550790e+00  7.1220964176346024e+00  7.1226856258076925e+00  7.1232580064981477e+00  7.1238140465011499e+00  7.1243542182343207e+00  7.1248789801746062e+00  7.1253887772814766e+00  7.1258840414068345e+00  7.1263651916920985e+00  7.1268326349528834e+00  7.1272867660516042e+00  7.1277279682584789e+00  7.1281566136012602e+00  7.1285730632040547e+00  7.1289776676155840e+00  7.1293707671272406e+00  7.1297526920812677e+00  7.1301237631693350e+00  7.1304842917218894e+00  7.1308345799885124e+00  7.1311749214096087e+00  7.1315056008797093e+00  7.1318268950026127e+00  7.1321390723386724e+00  7.1324423936444639e+00  7.1327371121050644e+00  7.1330234735592120e+00  7.1333017167175123e+00  7.1335720733739905e+00  7.1338347686111456e+00  7.1340900209987153e+00  7.1343380427863918e+00  7.1345790400906317e+00  7.1348132130757875e+00  7.1350407561296976e+00  7.1352618580339602e+00  7.1354767021290195e+00  7.1356854664742366e+00  7.1358883240031252e+00  7.1360854426738660e+00  7.1362769856152850e+00  7.1364631112684229e+00  7.1366439735238059e+00  7.1368197218546232e+00  7.1369905014458590e+00  7.1371564533195624e+00  7.1373177144563460e+00  7.1374744179132383e+00  7.1376266929380172e+00  7.1377746650801104e+00  7.1379184562981761e+00  7.1380581850644953e+00  7.1381939664662193e+00  7.1383259123036149e+00  7.1384541311853988e+00  7.1385787286212157e+00  7.1386998071113767e+00  7.1388174662339505e+00  7.1389318027292434e+00  7.1390429105818161e+00  7.1391508811000328e+00  7.1392558029933122e+00  7.1393577624470481e+00  7.1394568431953465e+00  7.1395531265916228e+00  7.1396466916771155e+00  7.1397376152473795e+00  7.1398259719168440e+00  7.1399118341814631e+00  7.1399952724795286e+00  7.1400763552507103e+00  7.1401551489933768e+00  7.1402317183202104e+00  7.1403061260122316e+00  7.1403784330712323e+00  7.1404486987706832e+00  7.1405169807051383e+00  7.1405833348382490e+00  7.1406478155493387e+00  7.1407104756786426e+00  7.1407713665712276e+00  7.1408305381196397e+00  7.1408880388053264e+00  7.1409439157388430e+00  7.1409982146989091e+00  7.1410509801703190e+00  7.1411022553807824e+00  7.1411520823366672e+00  7.1412005018577513e+00  7.1412475536109312e+00  7.1412932761429930e+00  7.1413377069124175e+00  7.1413808823202851e+00  7.1414228377402855e+00  7.1414636075478581e+00  7.1415032251485107e+00  7.1415417230053073e+00  7.1415791326655897e+00  7.1416154847869109e+00  7.1416508091622406e+00  7.1416851347444466e+00  7.1417184896700654e+00  7.1417509012824070e+00  7.1417823961539817e+00  7.1418130001083142e+00  7.1418427382411078e+00  7.1418716349408173e+00  7.1418997139086189e+00  7.1419269981778548e+00  7.1419535101328604e+00  7.1419792715273109e+00  7.1420043035020084e+00  7.1420286266021842e+00  7.1420522607943022e+00  7.1420752254823769e+00  7.1420975395238484e+00  7.1421192212449753e+00  7.1421402884558249e+00  7.1421607584648106e+00  7.1421806480928316e+00  7.1421999736870063e+00  7.1422187511340169e+00  7.1422369958730778e+00  7.1422547229085351e+00  7.1422719468221079e+00  7.1422886817847848e+00  7.1423049415683817e+00  7.1423207395567836e+00  7.1423360887568483e+00  7.1423510018090131e+00  7.1423654909976122e+00  7.1423795682608802e+00  7.1423932452006902e+00  7.1424065330920135e+00  7.1424194428921020e+00  7.1424319852494280e+00  7.1424441705123636e+00  7.1424560087376108e+00  7.1424675096983963e+00  7.1424786828924427e+00  7.1424895375497064e+00  7.1425000826399021e+00  7.1425103268798162e+00  7.1425202787404043e+00  7.1425299464537080e+00  7.1425393380195494e+00  7.1425484612120735e+00  7.1425573235860673e+00  7.1425659324831301e+00  7.1425742950376598e+00  7.1425824181826698e+00  7.1425903086554392e+00  7.1425979730030171e+00  7.1426054175875535e+00  7.1426126485915029e+00  7.1426196720226534e+00  7.1426264937190433e+00  7.1426331193537180e+00  7.1426395544393646e+00  7.1426458043328136e+00  7.1426518742394158e+00  7.1426577692172781e+00  7.1426634941814191e+00  7.1426690539077677e+00  7.1426744530370643e+00  7.1426796960786687e+00  7.1426847874142316e+00  7.1426897313012798e+00  7.1426945318767014e+00  7.1426991931601247e+00  7.1427037190572085e+00  7.1427081133628354e+00  7.1427123797642142e+00  7.1427165218438970e+00  7.1427205430827172e+00  7.1427244468626272e+00  7.1427282364694697e+00  7.1427319150956752e+00  7.1427354858428602e+00  7.1427389517243762e+00  7.1427423156677747e+00  7.1427455805171940e+00  7.1427487490356976e+00  7.1427518239075294e+00  7.1427548077403031e+00  7.1427577030671490e+00  7.1427605123487732e+00  7.1427632379754700e+00  7.1427658822690843e+00  7.1427684474848911e+00  7.1427709358134557e+00  7.1427733493824030e+00  7.1427756902581629e+00  7.1427779604476500e+00  7.1427801618998981e+00  7.1427822965076455e+00  7.1427843661088728e+00  7.1427863724882927e+00  7.1427883173788027e+00  7.1427902024628791e+00  7.1427920293739469e+00  7.1427937996976878e+00  7.1427955149733293e+00  7.1427971766948790e+00  7.1427987863123183e+00  7.1428003452327715e+00  7.1428018548216325e+00  7.1428033164036480e+00  7.1428047312639729e+00  7.1428061006491932e+00  7.1428074257683134e+00  7.1428087077937077e+00  7.1428099478620402e+00  7.1428111470751663e+00  7.1428123065009830e+00  7.1428134271742643e+00  7.1428145100974696e+00  7.1428155562415103e+00  7.1428165665465020e+00  7.1428175419224793e+00  7.1428184832501023e+00  7.1428193913813134e+00  7.1428202671399896e+00  7.1428211113225570e+00  7.1428219246985929e+00  7.1428227080113968e+00  7.1428234619785380e+00  7.1428241872923897e+00  7.1428248846206381e+00  7.1428255546067643e+00  7.1428261978705176e+00  7.1428268150083598e+00  7.1428274065938853e+00  7.1428279731782469e+00  7.1428285152905362e+00  7.1428290334381588e+00  7.1428295281071934e+00  7.1428299997627231e+00  7.1428304488491667e+00  7.1428308757905876e+00  7.1428312809909729e+00  7.1428316648345200e+00  7.1428320276858939e+00  7.1428323698904705e+00  7.1428326917745792e+00  7.1428329936457065e+00  7.1428332757927109e+00  7.1428335384860171e+00  7.1428337819777816e+00  7.1428340065020759e+00  7.1428342122750212e+00  7.1428343994949453e+00  7.1428345683424981e+00  7.1428347189807839e+00  7.1428348515554525e+00  7.1428349661948030e+00  7.1428350630098612e+00  7.1428351420944507e+00  7.1428352035252560e+00  7.1428352473618677e+00  7.1428352736468250e+00  7.1428352824056462e+00  7.1428352736468277e+00  7.1428352473618668e+00  7.1428352035252560e+00  7.1428351420944516e+00  7.1428350630098629e+00  7.1428349661948038e+00  7.1428348515554516e+00  7.1428347189807813e+00  7.1428345683424945e+00  7.1428343994949408e+00  7.1428342122750204e+00  7.1428340065020759e+00  7.1428337819777816e+00  7.1428335384860144e+00  7.1428332757927082e+00  7.1428329936457029e+00  7.1428326917745766e+00  7.1428323698904679e+00  7.1428320276858903e+00  7.1428316648345165e+00  7.1428312809909702e+00  7.1428308757905858e+00  7.1428304488491658e+00  7.1428299997627205e+00  7.1428295281071907e+00  7.1428290334381561e+00  7.1428285152905318e+00  7.1428279731782407e+00  7.1428274065938808e+00  7.1428268150083563e+00  7.1428261978705168e+00  7.1428255546067643e+00  7.1428248846206381e+00  7.1428241872923888e+00  7.1428234619785371e+00  7.1428227080113986e+00  7.1428219246985956e+00  7.1428211113225597e+00  7.1428202671399887e+00  7.1428193913813107e+00  7.1428184832500996e+00  7.1428175419224784e+00  7.1428165665465020e+00  7.1428155562415121e+00  7.1428145100974705e+00  7.1428134271742660e+00  7.1428123065009848e+00  7.1428111470751698e+00  7.1428099478620446e+00  7.1428087077937095e+00  7.1428074257683178e+00  7.1428061006491967e+00  7.1428047312639737e+00  7.1428033164036480e+00  7.1428018548216325e+00  7.1428003452327715e+00  7.1427987863123166e+00  7.1427971766948781e+00  7.1427955149733275e+00  7.1427937996976851e+00  7.1427920293739415e+00  7.1427902024628764e+00  7.1427883173787992e+00  7.1427863724882910e+00  7.1427843661088710e+00  7.1427822965076446e+00  7.1427801618998972e+00  7.1427779604476500e+00  7.1427756902581629e+00  7.1427733493824030e+00  7.1427709358134583e+00  7.1427684474848947e+00  7.1427658822690860e+00  7.1427632379754700e+00  7.1427605123487732e+00  7.1427577030671490e+00  7.1427548077403014e+00  7.1427518239075267e+00  7.1427487490356976e+00  7.1427455805171949e+00  7.1427423156677747e+00  7.1427389517243762e+00  7.1427354858428602e+00  7.1427319150956752e+00  7.1427282364694697e+00  7.1427244468626272e+00  7.1427205430827181e+00  7.1427165218438997e+00  7.1427123797642151e+00  7.1427081133628354e+00  7.1427037190572076e+00  7.1426991931601238e+00  7.1426945318766988e+00  7.1426897313012772e+00  7.1426847874142307e+00  7.1426796960786714e+00  7.1426744530370669e+00  7.1426690539077686e+00  7.1426634941814235e+00  7.1426577692172799e+00  7.1426518742394149e+00  7.1426458043328163e+00  7.1426395544393655e+00  7.1426331193537189e+00  7.1426264937190460e+00  7.1426196720226560e+00  7.1426126485915056e+00  7.1426054175875544e+00  7.1425979730030171e+00  7.1425903086554392e+00  7.1425824181826698e+00  7.1425742950376598e+00  7.1425659324831301e+00  7.1425573235860673e+00  7.1425484612120735e+00  7.1425393380195503e+00  7.1425299464537106e+00  7.1425202787404105e+00  7.1425103268798207e+00  7.1425000826399065e+00  7.1424895375497099e+00  7.1424786828924480e+00  7.1424675096984025e+00  7.1424560087376161e+00  7.1424441705123662e+00  7.1424319852494271e+00  7.1424194428920984e+00  7.1424065330920090e+00  7.1423932452006884e+00  7.1423795682608775e+00  7.1423654909976104e+00  7.1423510018090139e+00  7.1423360887568501e+00  7.1423207395567880e+00  7.1423049415683870e+00  7.1422886817847884e+00  7.1422719468221141e+00  7.1422547229085405e+00  7.1422369958730831e+00  7.1422187511340196e+00  7.1421999736870072e+00  7.1421806480928334e+00  7.1421607584648124e+00  7.1421402884558258e+00  7.1421192212449789e+00  7.1420975395238493e+00  7.1420752254823787e+00  7.1420522607943022e+00  7.1420286266021860e+00  7.1420043035020102e+00  7.1419792715273154e+00  7.1419535101328639e+00  7.1419269981778557e+00  7.1418997139086224e+00  7.1418716349408182e+00  7.1418427382411060e+00  7.1418130001083115e+00  7.1417823961539773e+00  7.1417509012824016e+00  7.1417184896700636e+00  7.1416851347444457e+00  7.1416508091622406e+00  7.1416154847869091e+00  7.1415791326655871e+00  7.1415417230053055e+00  7.1415032251485071e+00  7.1414636075478546e+00  7.1414228377402837e+00  7.1413808823202825e+00  7.1413377069124140e+00  7.1412932761429886e+00  7.1412475536109286e+00  7.1412005018577460e+00  7.1411520823366645e+00  7.1411022553807779e+00  7.1410509801703190e+00  7.1409982146989091e+00  7.1409439157388430e+00  7.1408880388053237e+00  7.1408305381196380e+00  7.1407713665712249e+00  7.1407104756786417e+00  7.1406478155493360e+00  7.1405833348382473e+00  7.1405169807051347e+00  7.1404486987706797e+00  7.1403784330712323e+00  7.1403061260122334e+00  7.1402317183202113e+00  7.1401551489933786e+00  7.1400763552507129e+00  7.1399952724795286e+00  7.1399118341814631e+00  7.1398259719168449e+00  7.1397376152473795e+00  7.1396466916771129e+00  7.1395531265916210e+00  7.1394568431953456e+00  7.1393577624470490e+00  7.1392558029933122e+00  7.1391508811000302e+00  7.1390429105818134e+00  7.1389318027292470e+00  7.1388174662339532e+00  7.1386998071113812e+00  7.1385787286212183e+00  7.1384541311854006e+00  7.1383259123036149e+00  7.1381939664662184e+00  7.1380581850644962e+00  7.1379184562981752e+00  7.1377746650801104e+00  7.1376266929380172e+00  7.1374744179132366e+00  7.1373177144563433e+00  7.1371564533195606e+00  7.1369905014458555e+00  7.1368197218546188e+00  7.1366439735238014e+00  7.1364631112684203e+00  7.1362769856152841e+00  7.1360854426738625e+00  7.1358883240031235e+00  7.1356854664742357e+00  7.1354767021290195e+00  7.1352618580339602e+00  7.1350407561296976e+00  7.1348132130757875e+00  7.1345790400906317e+00  7.1343380427863892e+00  7.1340900209987144e+00  7.1338347686111456e+00  7.1335720733739914e+00  7.1333017167175115e+00  7.1330234735592102e+00  7.1327371121050627e+00  7.1324423936444594e+00  7.1321390723386688e+00  7.1318268950026091e+00  7.1315056008797066e+00  7.1311749214096052e+00  7.1308345799885080e+00  7.1304842917218894e+00  7.1301237631693359e+00  7.1297526920812677e+00  7.1293707671272415e+00  7.1289776676155823e+00  7.1285730632040547e+00  7.1281566136012602e+00  7.1277279682584798e+00  7.1272867660516024e+00  7.1268326349528852e+00  7.1263651916921011e+00  7.1258840414068336e+00  7.1253887772814748e+00  7.1248789801746035e+00  7.1243542182343154e+00  7.1238140465011446e+00  7.1232580064981423e+00  7.1226856258076898e+00  7.1220964176346024e+00  7.1214898803550799e+00  7.1208654970510326e+00  7.1202227350292766e+00  7.1195610453251268e+00  7.1188798621898535e+00  7.1181786025614677e+00  7.1174566655182936e+00  7.1167134317147660e+00  7.1159482627988346e+00  7.1151605008103838e+00  7.1143494675600847e+00  7.1135144639879622e+00  7.1126547695010709e+00  7.1117696412895546e+00  7.1108583136204269e+00  7.1099199971083005e+00  7.1089538779623354e+00  7.1079591172086474e+00  7.1069348498873444e+00  7.1058801842234161e+00  7.1047942007705940e+00  7.1036759515273404e+00  7.1025244590240684e+00  7.1013387153806535e+00  7.1001176813333222e+00  7.0988602852299483e+00  7.0975654219927264e+00  7.0962319520472397e+00  7.0948587002168475e+00  7.0934444545813156e+00  7.0919879652986131e+00  7.0904879433886938e+00  7.0889430594781775e+00  7.0873519425046387e+00  7.0857131783793994e+00  7.0840253086074991e+00  7.0822868288636283e+00  7.0804961875227015e+00  7.0786517841437462e+00  7.0767519679057802e+00  7.0747950359942857e+00  7.0727792319368996e+00  7.0707027438868773e+00  7.0685637028529227e+00  7.0663601808738807e+00  7.0640901891368584e+00  7.0617516760372219e+00  7.0593425251790185e+00  7.0568605533142463e+00  7.0543035082194523e+00  7.0516690665081434e+00  7.0489548313774106e+00  7.0461583302872768e+00  7.0432770125711857e+00  7.0403082469761094e+00  7.0372493191307681e+00  7.0340974289404326e+00  7.0308496879068514e+00  7.0275031163718777e+00  7.0240546406833255e+00  7.0205010902817664e+00  7.0168391947069226e+00  7.0130655805224329e+00  7.0091767681577934e+00  7.0051691686664661e+00  7.0010390803990949e+00  6.9967826855910333e+00  6.9923960468633