<?xml version="1.0"?>
<VTKFile type="UnstructuredGrid"  version="0.1"  >
<UnstructuredGrid>
<Piece  NumberOfPoints="1001" NumberOfCells="1000">
<Points>
<DataArray  type="Float64"  NumberOfComponents="3"  format="ascii">0 0 0  0.001 0 0  0.002 0 0  0.003 0 0  0.004 0 0  0.005 0 0  0.006 0 0  0.007 0 0  0.008 0 0  0.008999999999999999 0 0  0.01 0 0  0.011 0 0  0.012 0 0  0.013 0 0  0.014 0 0  0.015 0 0  0.016 0 0  0.017 0 0  0.018 0 0  0.019 0 0  0.02 0 0  0.021 0 0  0.022 0 0  0.023 0 0  0.024 0 0  0.025 0 0  0.026 0 0  0.027 0 0  0.028 0 0  0.029 0 0  0.03 0 0  0.031 0 0  0.032 0 0  0.033 0 0  0.034 0 0  0.035 0 0  0.036 0 0  0.037 0 0  0.038 0 0  0.039 0 0  0.04 0 0  0.041 0 0  0.042 0 0  0.043 0 0  0.044 0 0  0.045 0 0  0.046 0 0  0.047 0 0  0.048 0 0  0.049 0 0  0.05 0 0  0.051 0 0  0.052 0 0  0.053 0 0  0.054 0 0  0.055 0 0  0.056 0 0  0.057 0 0  0.058 0 0  0.059 0 0  0.06 0 0  0.061 0 0  0.062 0 0  0.063 0 0  0.064 0 0  0.065 0 0  0.066 0 0  0.067 0 0  0.068 0 0  0.06900000000000001 0 0  0.07000000000000001 0 0  0.07099999999999999 0 0  0.07199999999999999 0 0  0.073 0 0  0.074 0 0  0.075 0 0  0.076 0 0  0.077 0 0  0.078 0 0  0.079 0 0  0.08 0 0  0.081 0 0  0.082 0 0  0.083 0 0  0.08400000000000001 0 0  0.08500000000000001 0 0  0.08599999999999999 0 0  0.08699999999999999 0 0  0.08799999999999999 0 0  0.089 0 0  0.09 0 0  0.091 0 0  0.092 0 0  0.093 0 0  0.094 0 0  0.095 0 0  0.096 0 0  0.097 0 0  0.098 0 0  0.099 0 0  0.1 0 0  0.101 0 0  0.102 0 0  0.103 0 0  0.104 0 0  0.105 0 0  0.106 0 0  0.107 0 0  0.108 0 0  0.109 0 0  0.11 0 0  0.111 0 0  0.112 0 0  0.113 0 0  0.114 0 0  0.115 0 0  0.116 0 0  0.117 0 0  0.118 0 0  0.119 0 0  0.12 0 0  0.121 0 0  0.122 0 0  0.123 0 0  0.124 0 0  0.125 0 0  0.126 0 0  0.127 0 0  0.128 0 0  0.129 0 0  0.13 0 0  0.131 0 0  0.132 0 0  0.133 0 0  0.134 0 0  0.135 0 0  0.136 0 0  0.137 0 0  0.138 0 0  0.139 0 0  0.14 0 0  0.141 0 0  0.142 0 0  0.143 0 0  0.144 0 0  0.145 0 0  0.146 0 0  0.147 0 0  0.148 0 0  0.149 0 0  0.15 0 0  0.151 0 0  0.152 0 0  0.153 0 0  0.154 0 0  0.155 0 0  0.156 0 0  0.157 0 0  0.158 0 0  0.159 0 0  0.16 0 0  0.161 0 0  0.162 0 0  0.163 0 0  0.164 0 0  0.165 0 0  0.166 0 0  0.167 0 0  0.168 0 0  0.169 0 0  0.17 0 0  0.171 0 0  0.172 0 0  0.173 0 0  0.174 0 0  0.175 0 0  0.176 0 0  0.177 0 0  0.178 0 0  0.179 0 0  0.18 0 0  0.181 0 0  0.182 0 0  0.183 0 0  0.184 0 0  0.185 0 0  0.186 0 0  0.187 0 0  0.188 0 0  0.189 0 0  0.19 0 0  0.191 0 0  0.192 0 0  0.193 0 0  0.194 0 0  0.195 0 0  0.196 0 0  0.197 0 0  0.198 0 0  0.199 0 0  0.2 0 0  0.201 0 0  0.202 0 0  0.203 0 0  0.204 0 0  0.205 0 0  0.206 0 0  0.207 0 0  0.208 0 0  0.209 0 0  0.21 0 0  0.211 0 0  0.212 0 0  0.213 0 0  0.214 0 0  0.215 0 0  0.216 0 0  0.217 0 0  0.218 0 0  0.219 0 0  0.22 0 0  0.221 0 0  0.222 0 0  0.223 0 0  0.224 0 0  0.225 0 0  0.226 0 0  0.227 0 0  0.228 0 0  0.229 0 0  0.23 0 0  0.231 0 0  0.232 0 0  0.233 0 0  0.234 0 0  0.235 0 0  0.236 0 0  0.237 0 0  0.238 0 0  0.239 0 0  0.24 0 0  0.241 0 0  0.242 0 0  0.243 0 0  0.244 0 0  0.245 0 0  0.246 0 0  0.247 0 0  0.248 0 0  0.249 0 0  0.25 0 0  0.251 0 0  0.252 0 0  0.253 0 0  0.254 0 0  0.255 0 0  0.256 0 0  0.257 0 0  0.258 0 0  0.259 0 0  0.26 0 0  0.261 0 0  0.262 0 0  0.263 0 0  0.264 0 0  0.265 0 0  0.266 0 0  0.267 0 0  0.268 0 0  0.269 0 0  0.27 0 0  0.271 0 0  0.272 0 0  0.273 0 0  0.274 0 0  0.275 0 0  0.276 0 0  0.277 0 0  0.278 0 0  0.279 0 0  0.28 0 0  0.281 0 0  0.282 0 0  0.283 0 0  0.284 0 0  0.285 0 0  0.286 0 0  0.287 0 0  0.288 0 0  0.289 0 0  0.29 0 0  0.291 0 0  0.292 0 0  0.293 0 0  0.294 0 0  0.295 0 0  0.296 0 0  0.297 0 0  0.298 0 0  0.299 0 0  0.3 0 0  0.301 0 0  0.302 0 0  0.303 0 0  0.304 0 0  0.305 0 0  0.306 0 0  0.307 0 0  0.308 0 0  0.309 0 0  0.31 0 0  0.311 0 0  0.312 0 0  0.313 0 0  0.314 0 0  0.315 0 0  0.316 0 0  0.317 0 0  0.318 0 0  0.319 0 0  0.32 0 0  0.321 0 0  0.322 0 0  0.323 0 0  0.324 0 0  0.325 0 0  0.326 0 0  0.327 0 0  0.328 0 0  0.329 0 0  0.33 0 0  0.331 0 0  0.332 0 0  0.333 0 0  0.334 0 0  0.335 0 0  0.336 0 0  0.337 0 0  0.338 0 0  0.339 0 0  0.34 0 0  0.341 0 0  0.342 0 0  0.343 0 0  0.344 0 0  0.345 0 0  0.346 0 0  0.347 0 0  0.348 0 0  0.349 0 0  0.35 0 0  0.351 0 0  0.352 0 0  0.353 0 0  0.354 0 0  0.355 0 0  0.356 0 0  0.357 0 0  0.358 0 0  0.359 0 0  0.36 0 0  0.361 0 0  0.362 0 0  0.363 0 0  0.364 0 0  0.365 0 0  0.366 0 0  0.367 0 0  0.368 0 0  0.369 0 0  0.37 0 0  0.371 0 0  0.372 0 0  0.373 0 0  0.374 0 0  0.375 0 0  0.376 0 0  0.377 0 0  0.378 0 0  0.379 0 0  0.38 0 0  0.381 0 0  0.382 0 0  0.383 0 0  0.384 0 0  0.385 0 0  0.386 0 0  0.387 0 0  0.388 0 0  0.389 0 0  0.39 0 0  0.391 0 0  0.392 0 0  0.393 0 0  0.394 0 0  0.395 0 0  0.396 0 0  0.397 0 0  0.398 0 0  0.399 0 0  0.4 0 0  0.401 0 0  0.402 0 0  0.403 0 0  0.404 0 0  0.405 0 0  0.406 0 0  0.407 0 0  0.408 0 0  0.409 0 0  0.41 0 0  0.411 0 0  0.412 0 0  0.413 0 0  0.414 0 0  0.415 0 0  0.416 0 0  0.417 0 0  0.418 0 0  0.419 0 0  0.42 0 0  0.421 0 0  0.422 0 0  0.423 0 0  0.424 0 0  0.425 0 0  0.426 0 0  0.427 0 0  0.428 0 0  0.429 0 0  0.43 0 0  0.431 0 0  0.432 0 0  0.433 0 0  0.434 0 0  0.435 0 0  0.436 0 0  0.437 0 0  0.438 0 0  0.439 0 0  0.44 0 0  0.441 0 0  0.442 0 0  0.443 0 0  0.444 0 0  0.445 0 0  0.446 0 0  0.447 0 0  0.448 0 0  0.449 0 0  0.45 0 0  0.451 0 0  0.452 0 0  0.453 0 0  0.454 0 0  0.455 0 0  0.456 0 0  0.457 0 0  0.458 0 0  0.459 0 0  0.46 0 0  0.461 0 0  0.462 0 0  0.463 0 0  0.464 0 0  0.465 0 0  0.466 0 0  0.467 0 0  0.468 0 0  0.469 0 0  0.47 0 0  0.471 0 0  0.472 0 0  0.473 0 0  0.474 0 0  0.475 0 0  0.476 0 0  0.477 0 0  0.478 0 0  0.479 0 0  0.48 0 0  0.481 0 0  0.482 0 0  0.483 0 0  0.484 0 0  0.485 0 0  0.486 0 0  0.487 0 0  0.488 0 0  0.489 0 0  0.49 0 0  0.491 0 0  0.492 0 0  0.493 0 0  0.494 0 0  0.495 0 0  0.496 0 0  0.497 0 0  0.498 0 0  0.499 0 0  0.5 0 0  0.501 0 0  0.502 0 0  0.503 0 0  0.504 0 0  0.505 0 0  0.506 0 0  0.507 0 0  0.508 0 0  0.509 0 0  0.51 0 0  0.511 0 0  0.512 0 0  0.513 0 0  0.514 0 0  0.515 0 0  0.516 0 0  0.517 0 0  0.518 0 0  0.519 0 0  0.52 0 0  0.521 0 0  0.522 0 0  0.523 0 0  0.524 0 0  0.525 0 0  0.526 0 0  0.527 0 0  0.528 0 0  0.529 0 0  0.53 0 0  0.531 0 0  0.532 0 0  0.533 0 0  0.534 0 0  0.535 0 0  0.536 0 0  0.537 0 0  0.538 0 0  0.539 0 0  0.54 0 0  0.541 0 0  0.542 0 0  0.543 0 0  0.544 0 0  0.545 0 0  0.546 0 0  0.547 0 0  0.548 0 0  0.549 0 0  0.55 0 0  0.551 0 0  0.552 0 0  0.553 0 0  0.554 0 0  0.555 0 0  0.556 0 0  0.5570000000000001 0 0  0.5580000000000001 0 0  0.5590000000000001 0 0  0.5600000000000001 0 0  0.5610000000000001 0 0  0.5620000000000001 0 0  0.5629999999999999 0 0  0.5639999999999999 0 0  0.5649999999999999 0 0  0.5659999999999999 0 0  0.5669999999999999 0 0  0.5679999999999999 0 0  0.569 0 0  0.57 0 0  0.571 0 0  0.572 0 0  0.573 0 0  0.574 0 0  0.575 0 0  0.576 0 0  0.577 0 0  0.578 0 0  0.579 0 0  0.58 0 0  0.581 0 0  0.582 0 0  0.583 0 0  0.584 0 0  0.585 0 0  0.586 0 0  0.587 0 0  0.588 0 0  0.589 0 0  0.59 0 0  0.591 0 0  0.592 0 0  0.593 0 0  0.594 0 0  0.595 0 0  0.596 0 0  0.597 0 0  0.598 0 0  0.599 0 0  0.6 0 0  0.601 0 0  0.602 0 0  0.603 0 0  0.604 0 0  0.605 0 0  0.606 0 0  0.607 0 0  0.608 0 0  0.609 0 0  0.61 0 0  0.611 0 0  0.612 0 0  0.613 0 0  0.614 0 0  0.615 0 0  0.616 0 0  0.617 0 0  0.618 0 0  0.619 0 0  0.62 0 0  0.621 0 0  0.622 0 0  0.623 0 0  0.624 0 0  0.625 0 0  0.626 0 0  0.627 0 0  0.628 0 0  0.629 0 0  0.63 0 0  0.631 0 0  0.632 0 0  0.633 0 0  0.634 0 0  0.635 0 0  0.636 0 0  0.637 0 0  0.638 0 0  0.639 0 0  0.64 0 0  0.641 0 0  0.642 0 0  0.643 0 0  0.644 0 0  0.645 0 0  0.646 0 0  0.647 0 0  0.648 0 0  0.649 0 0  0.65 0 0  0.651 0 0  0.652 0 0  0.653 0 0  0.654 0 0  0.655 0 0  0.656 0 0  0.657 0 0  0.658 0 0  0.659 0 0  0.66 0 0  0.661 0 0  0.662 0 0  0.663 0 0  0.664 0 0  0.665 0 0  0.666 0 0  0.667 0 0  0.668 0 0  0.669 0 0  0.67 0 0  0.671 0 0  0.672 0 0  0.673 0 0  0.674 0 0  0.675 0 0  0.676 0 0  0.677 0 0  0.678 0 0  0.679 0 0  0.68 0 0  0.681 0 0  0.6820000000000001 0 0  0.6830000000000001 0 0  0.6840000000000001 0 0  0.6850000000000001 0 0  0.6860000000000001 0 0  0.6870000000000001 0 0  0.6879999999999999 0 0  0.6889999999999999 0 0  0.6899999999999999 0 0  0.6909999999999999 0 0  0.6919999999999999 0 0  0.6929999999999999 0 0  0.694 0 0  0.695 0 0  0.696 0 0  0.697 0 0  0.698 0 0  0.699 0 0  0.7 0 0  0.701 0 0  0.702 0 0  0.703 0 0  0.704 0 0  0.705 0 0  0.706 0 0  0.707 0 0  0.708 0 0  0.709 0 0  0.71 0 0  0.711 0 0  0.712 0 0  0.713 0 0  0.714 0 0  0.715 0 0  0.716 0 0  0.717 0 0  0.718 0 0  0.719 0 0  0.72 0 0  0.721 0 0  0.722 0 0  0.723 0 0  0.724 0 0  0.725 0 0  0.726 0 0  0.727 0 0  0.728 0 0  0.729 0 0  0.73 0 0  0.731 0 0  0.732 0 0  0.733 0 0  0.734 0 0  0.735 0 0  0.736 0 0  0.737 0 0  0.738 0 0  0.739 0 0  0.74 0 0  0.741 0 0  0.742 0 0  0.743 0 0  0.744 0 0  0.745 0 0  0.746 0 0  0.747 0 0  0.748 0 0  0.749 0 0  0.75 0 0  0.751 0 0  0.752 0 0  0.753 0 0  0.754 0 0  0.755 0 0  0.756 0 0  0.757 0 0  0.758 0 0  0.759 0 0  0.76 0 0  0.761 0 0  0.762 0 0  0.763 0 0  0.764 0 0  0.765 0 0  0.766 0 0  0.767 0 0  0.768 0 0  0.769 0 0  0.77 0 0  0.771 0 0  0.772 0 0  0.773 0 0  0.774 0 0  0.775 0 0  0.776 0 0  0.777 0 0  0.778 0 0  0.779 0 0  0.78 0 0  0.781 0 0  0.782 0 0  0.783 0 0  0.784 0 0  0.785 0 0  0.786 0 0  0.787 0 0  0.788 0 0  0.789 0 0  0.79 0 0  0.791 0 0  0.792 0 0  0.793 0 0  0.794 0 0  0.795 0 0  0.796 0 0  0.797 0 0  0.798 0 0  0.799 0 0  0.8 0 0  0.801 0 0  0.802 0 0  0.803 0 0  0.804 0 0  0.805 0 0  0.806 0 0  0.8070000000000001 0 0  0.8080000000000001 0 0  0.8090000000000001 0 0  0.8100000000000001 0 0  0.8110000000000001 0 0  0.8120000000000001 0 0  0.8129999999999999 0 0  0.8139999999999999 0 0  0.8149999999999999 0 0  0.8159999999999999 0 0  0.8169999999999999 0 0  0.8179999999999999 0 0  0.819 0 0  0.82 0 0  0.821 0 0  0.822 0 0  0.823 0 0  0.824 0 0  0.825 0 0  0.826 0 0  0.827 0 0  0.828 0 0  0.829 0 0  0.83 0 0  0.831 0 0  0.832 0 0  0.833 0 0  0.834 0 0  0.835 0 0  0.836 0 0  0.837 0 0  0.838 0 0  0.839 0 0  0.84 0 0  0.841 0 0  0
[...]
<PointData  Scalars="f_20-0"> 
<DataArray  type="Float64"  Name="f_20-0"  format="ascii">4.9775962282325272e+00  4.9791773366909657e+00  4.9839065267726230e+00  4.9917417230639973e+00  5.0026138870188870e+00  5.0164285982100711e+00  5.0330681726248585e+00  5.0523942302977156e+00  5.0742506097463638e+00  5.0984665181743756e+00  5.1248598043421749e+00  5.1532402449943771e+00  5.1834127449421690e+00  5.2151803642035564e+00  5.2483471017010102e+00  5.2827203825708864e+00  5.3181132139038887e+00  5.3543459906399713e+00  5.3912479485500393e+00  5.4286582741771472e+00  5.4664268919651127e+00  5.5044149564864666e+00  5.5424950827967763e+00  5.5805513507311719e+00  5.6184791197544524e+00  5.6561846901576640e+00  5.6935848443488428e+00  5.7306062990809679e+00  5.7671850960239937e+00  5.8032659543967533e+00  5.8388016056507590e+00  5.8737521266086450e+00  5.9080842841235217e+00  5.9417709013163194e+00  5.9747902528057555e+00  6.0071254940814720e+00  6.0387641282763278e+00  6.0696975120454768e+00  6.0999204010259449e+00  6.1294305343941575e+00  6.1582282573218086e+00  6.1863161796156518e+00  6.2136988684784678e+00  6.2403825731152667e+00  6.2663749788023209e+00  6.2916849880125323e+00  6.3163225262286611e+00  6.3402983701587035e+00  6.3636239961817331e+00  6.3863114469863760e+00  6.4083732145093739e+00  6.4298221374316471e+00  6.4506713116388728e+00  6.4709340121993177e+00  6.4906236255510086e+00  6.5097535907214796e+00  6.5283373485256204e+00  6.5463882977996457e+00  6.5639197578324273e+00  6.5809449362489403e+00  6.5974769016852237e+00  6.6135285606702121e+00  6.6291126381980119e+00  6.6442416615347915e+00  6.6589279468585154e+00  6.6731835883776922e+00  6.6870204496177079e+00  6.7004501566006756e+00  6.7134840926779429e+00  6.7261333948033606e+00  6.7384089510610909e+00  6.7503213992842488e+00  6.7618811266204428e+00  6.7730982699176465e+00  6.7839827168191391e+00  6.7945441074696085e+00  6.8047918367462605e+00  6.8147350569391687e+00  6.8243826808141161e+00  6.8337433849991864e+00  6.8428256136433783e+00  6.8516375823016116e+00  6.8601872820061098e+00  6.8684824834886573e+00  6.8765307415227346e+00  6.8843393993580451e+00  6.8919155932233123e+00  6.8992662568762118e+00  6.9063981261817071e+00  6.9133177437025193e+00  6.9200314632873123e+00  6.9265454546441259e+00  6.9328657078880562e+00  6.9389980380536720e+00  6.9449480895638898e+00  6.9507213406481236e+00  6.9563231077035868e+00  6.9617585495944558e+00  6.9670326718844162e+00  6.9721503309988311e+00  6.9771162383133642e+00  6.9819349641665172e+00  6.9866109417939519e+00  6.9911484711830258e+00  6.9955517228462130e+00  6.9998247415126400e+00  7.0039714497370769e+00  7.0079956514261665e+00  7.0119010352817819e+00  7.0156911781617648e+00  7.0193695483583758e+00  7.0229395087950257e+00  7.0264043201419657e+00  7.0297671438518048e+00  7.0330310451157567e+00  7.0361989957416924e+00  7.0392738769551224e+00  7.0422584821243275e+00  7.0451555194108675e+00  7.0479676143468577e+00  7.0506973123403212e+00  7.0533470811100436e+00  7.0559193130513806e+00  7.0584163275344078e+00  7.0608403731359664e+00  7.0631936298070110e+00  7.0654782109767886e+00  7.0676961655953026e+00  7.0698494801155638e+00  7.0719400804171135e+00  7.0739698336722361e+00  7.0759405501564006e+00  7.0778539850042783e+00  7.0797118399128278e+00  7.0815157647928375e+00  7.0832673593702973e+00  7.0849681747389681e+00  7.0866197148655266e+00  7.0882234380485443e+00  7.0897807583326635e+00  7.0912930468791782e+00  7.0927616332943186e+00  7.0941878069164250e+00  7.0955728180632196e+00  7.0969178792403396e+00  7.0982241663122601e+00  7.0994928196367519e+00  7.1007249451639165e+00  7.1019216155009195e+00  7.1030838709433697e+00  7.1042127204744556e+00  7.1053091427327271e+00  7.1063740869495478e+00  7.1074084738570980e+00  7.1084131965678727e+00  7.1093891214265295e+00  7.1103370888349477e+00  7.1112579140513601e+00  7.1121523879642909e+00  7.1130212778421988e+00  7.1138653280594815e+00  7.1146852607996305e+00  7.1154817767362788e+00  7.1162555556927716e+00  7.1170072572810268e+00  7.1177375215202412e+00  7.1184469694361781e+00  7.1191362036415757e+00  7.1198058088983291e+00  7.1204563526619911e+00  7.1210883856091769e+00  7.1217024421484076e+00  7.1222990409149265e+00  7.1228786852499946e+00  7.1234418636651595e+00  7.1239890502920007e+00  7.1245207053177761e+00  7.1250372754074567e+00  7.1255391941125765e+00  7.1260268822672979e+00  7.1265007483721314e+00  7.1269611889657005e+00  7.1274085889849097e+00  7.1278433221139190e+00  7.1282657511222549e+00  7.1286762281924441e+00  7.1290750952374564e+00  7.1294626842083213e+00  7.1298393173922099e+00  7.1302053077013117e+00  7.1305609589527617e+00  7.1309065661399575e+00  7.1312424156954775e+00  7.1315687857459187e+00  7.1318859463589002e+00  7.1321941597824541e+00  7.1324936806770971e+00  7.1327847563407634e+00  7.1330676269268460e+00  7.1333425256555945e+00  7.1336096790190204e+00  7.1338693069795829e+00  7.1341216231627822e+00  7.1343668350439104e+00  7.1346051441291305e+00  7.1348367461310289e+00  7.1350618311388594e+00  7.1352805837836257e+00  7.1354931833981734e+00  7.1356998041724182e+00  7.1359006153039104e+00  7.1360957811438572e+00  7.1362854613387308e+00  7.1364698109676246e+00  7.1366489806754831e+00  7.1368231168023355e+00  7.1369923615086295e+00  7.1371568528968572e+00  7.1373167251294909e+00  7.1374721085434434e+00  7.1376231297610602e+00  7.1377699117978626e+00  7.1379125741670215e+00  7.1380512329807750e+00  7.1381860010487994e+00  7.1383169879736768e+00  7.1384443002435152e+00  7.1385680413218626e+00  7.1386883117349083e+00  7.1388052091561551e+00  7.1389188284885581e+00  7.1390292619442768e+00  7.1391365991220335e+00  7.1392409270822297e+00  7.1393423304198480e+00  7.1394408913351946e+00  7.1395366897025969e+00  7.1396298031370513e+00  7.1397203070589601e+00  7.1398082747569385e+00  7.1398937774488100e+00  7.1399768843408022e+00  7.1400576626850443e+00  7.1401361778353509e+00  7.1402124933014086e+00  7.1402866708013901e+00  7.1403587703130169e+00  7.1404288501231497e+00  7.1404969668759444e+00  7.1405631756196160e+00  7.1406275298518285e+00  7.1406900815637995e+00  7.1407508812830898e+00  7.1408099781152030e+00  7.1408674197839561e+00  7.1409232526706834e+00  7.1409775218523288e+00  7.1410302711384173e+00  7.1410815431069876e+00  7.1411313791394742e+00  7.1411798194545888e+00  7.1412269031412370e+00  7.1412726681904797e+00  7.1413171515265885e+00  7.1413603890371959e+00  7.1414024156026095e+00  7.1414432651242441e+00  7.1414829705522891e+00  7.1415215639125469e+00  7.1415590763325296e+00  7.1415955380667873e+00  7.1416309785215359e+00  7.1416654262785748e+00  7.1416989091185101e+00  7.1417314540433408e+00  7.1417630872983784e+00  7.1417938343935621e+00  7.1418237201241510e+00  7.1418527685908382e+00  7.1418810032192903e+00  7.1419084467791398e+00  7.1419351214024154e+00  7.1419610486014893e+00  7.1419862492864672e+00  7.1420107437821310e+00  7.1420345518443611e+00  7.1420576926761310e+00  7.1420801849430235e+00  7.1421020467883123e+00  7.1421232958476271e+00  7.1421439492631968e+00  7.1421640236976920e+00  7.1421835353476659e+00  7.1422024999566380e+00  7.1422209328277884e+00  7.1422388488363069e+00  7.1422562624413848e+00  7.1422731876978700e+00  7.1422896382676004e+00  7.1423056274304138e+00  7.1423211680948384e+00  7.1423362728085067e+00  7.1423509537682461e+00  7.1423652228299019e+00  7.1423790915178946e+00  7.1423925710344820e+00  7.1424056722687785e+00  7.1424184058055271e+00  7.1424307819335988e+00  7.1424428106542814e+00  7.1424545016893166e+00  7.1424658644887264e+00  7.1424769082384003e+00  7.1424876418674916e+00  7.1424980740555934e+00  7.1425082132397106e+00  7.1425180676210456e+00  7.1425276451715831e+00  7.1425369536405130e+00  7.1425460005604311e+00  7.1425547932534199e+00  7.1425633388369052e+00  7.1425716442293954e+00  7.1425797161560203e+00  7.1425875611539498e+00  7.1425951855776315e+00  7.1426025956039059e+00  7.1426097972369584e+00  7.1426167963131499e+00  7.1426235985056934e+00  7.1426302093292131e+00  7.1426366341441838e+00  7.1426428781612215e+00  7.1426489464452754e+00  7.1426548439196944e+00  7.1426605753701740e+00  7.1426661454486116e+00  7.1426715586768328e+00  7.1426768194502248e+00  7.1426819320412660e+00  7.1426869006029632e+00  7.1426917291721734e+00  7.1426964216728592e+00  7.1427009819192318e+00  7.1427054136188222e+00  7.1427097203754508e+00  7.1427139056921254e+00  7.1427179729738564e+00  7.1427219255303926e+00  7.1427257665788808e+00  7.1427294992464399e+00  7.1427331265726908e+00  7.1427366515121875e+00  7.1427400769367910e+00  7.1427434056379857e+00  7.1427466403291096e+00  7.1427497836475462e+00  7.1427528381568450e+00  7.1427558063487755e+00  7.1427586906453335e+00  7.1427614934006884e+00  7.1427642169030712e+00  7.1427668633766324e+00  7.1427694349832125e+00  7.1427719338240854e+00  7.1427743619416519e+00  7.1427767213210842e+00  7.1427790138919169e+00  7.1427812415296037e+00  7.1427834060570374e+00  7.1427855092459929e+00  7.1427875528185831e+00  7.1427895384486186e+00  7.1427914677629714e+00  7.1427933423428831e+00  7.1427951637252383e+00  7.1427969334037984e+00  7.1427986528304181e+00  7.1428003234161981e+00  7.1428019465326313e+00  7.1428035235127147e+00  7.1428050556520128e+00  7.1428065442097086e+00  7.1428079904096204e+00  7.1428093954411862e+00  7.1428107604604243e+00  7.1428120865908697e+00  7.1428133749244767e+00  7.1428146265224992e+00  7.1428158424163559e+00  7.1428170236084547e+00  7.1428181710730110e+00  7.1428192857568238e+00  7.1428203685800522e+00  7.1428214204369480e+00  7.1428224421965920e+00  7.1428234347035842e+00  7.1428243987787372e+00  7.1428253352197331e+00  7.1428262448017668e+00  7.1428271282781832e+00  7.1428279863810813e+00  7.1428288198219043e+00  7.1428296292920228e+00  7.1428304154632878e+00  7.1428311789885734e+00  7.1428319205023172e+00  7.1428326406210214e+00  7.1428333399437545e+00  7.1428340190526498e+00  7.1428346785133607e+00  7.1428353188755285e+00  7.1428359406732236e+00  7.1428365444253821e+00  7.1428371306362211e+00  7.1428376997956544e+00  7.1428382523796836e+00  7.1428387888507947e+00  7.1428393096583171e+00  7.1428398152387969e+00  7.1428403060163514e+00  7.1428407824030140e+00  7.1428412447990617e+00  7.1428416935933452e+00  7.1428421291636051e+00  7.1428425518767718e+00  7.1428429620892713e+00  7.1428433601473014e+00  7.1428437463871255e+00  7.1428441211353375e+00  7.1428444847091273e+00  7.1428448374165328e+00  7.1428451795567005e+00  7.1428455114201128e+00  7.1428458332888392e+00  7.1428461454367476e+00  7.1428464481297320e+00  7.1428467416259327e+00  7.1428470261759358e+00  7.1428473020229761e+00  7.1428475694031359e+00  7.1428478285455297e+00  7.1428480796724996e+00  7.1428483229997779e+00  7.1428485587366692e+00  7.1428487870862183e+00  7.1428490082453653e+00  7.1428492224051139e+00  7.1428494297506733e+00  7.1428496304616100e+00  7.1428498247119911e+00  7.1428500126705208e+00  7.1428501945006717e+00  7.1428503703608239e+00  7.1428505404043756e+00  7.1428507047798790e+00  7.1428508636311419e+00  7.1428510170973514e+00  7.1428511653131812e+00  7.1428513084088943e+00  7.1428514465104440e+00  7.1428515797395766e+00  7.1428517082139216e+00  7.1428518320470848e+00  7.1428519513487343e+00  7.1428520662246848e+00  7.1428521767769881e+00  7.1428522831039958e+00  7.1428523853004471e+00  7.1428524834575393e+00  7.1428525776629881e+00  7.1428526680011082e+00  7.1428527545528642e+00  7.1428528373959361e+00  7.1428529166047889e+00  7.1428529922507105e+00  7.1428530644018791e+00  7.1428531331234115e+00  7.1428531984773995e+00  7.1428532605229789e+00  7.1428533193163473e+00  7.1428533749108336e+00  7.1428534273569086e+00  7.1428534767022525e+00  7.1428535229917598e+00  7.1428535662675960e+00  7.1428536065692150e+00  7.1428536439333925e+00  7.1428536783942551e+00  7.1428537099833047e+00  7.1428537387294355e+00  7.1428537646589616e+00  7.1428537877956355e+00  7.1428538081606590e+00  7.1428538257727077e+00  7.1428538406479340e+00  7.1428538527999921e+00  7.1428538622400408e+00  7.1428538689767462e+00  7.1428538730162954e+00  7.1428538743623999e+00  7.1428538730162936e+00  7.1428538689767445e+00  7.1428538622400408e+00  7.1428538527999930e+00  7.1428538406479332e+00  7.1428538257727050e+00  7.1428538081606581e+00  7.1428537877956355e+00  7.1428537646589643e+00  7.1428537387294408e+00  7.1428537099833092e+00  7.1428536783942604e+00  7.1428536439333952e+00  7.1428536065692185e+00  7.1428535662675996e+00  7.1428535229917625e+00  7.1428534767022551e+00  7.1428534273569113e+00  7.1428533749108336e+00  7.1428533193163481e+00  7.1428532605229771e+00  7.1428531984773969e+00  7.1428531331234071e+00  7.1428530644018764e+00  7.1428529922507069e+00  7.1428529166047836e+00  7.1428528373959326e+00  7.1428527545528588e+00  7.1428526680011055e+00  7.1428525776629872e+00  7.1428524834575384e+00  7.1428523853004462e+00  7.1428522831039940e+00  7.1428521767769864e+00  7.1428520662246822e+00  7.1428519513487307e+00  7.1428518320470795e+00  7.1428517082139180e+00  7.1428515797395740e+00  7.1428514465104413e+00  7.1428513084088916e+00  7.1428511653131794e+00  7.1428510170973496e+00  7.1428508636311410e+00  7.1428507047798817e+00  7.1428505404043792e+00  7.1428503703608266e+00  7.1428501945006753e+00  7.1428500126705208e+00  7.1428498247119911e+00  7.1428496304616109e+00  7.1428494297506759e+00  7.1428492224051165e+00  7.1428490082453671e+00  7.1428487870862174e+00  7.1428485587366684e+00  7.1428483229997788e+00  7.1428480796725005e+00  7.1428478285455306e+00  7.1428475694031333e+00  7.1428473020229735e+00  7.1428470261759349e+00  7.1428467416259327e+00  7.1428464481297311e+00  7.1428461454367440e+00  7.1428458332888347e+00  7.1428455114201093e+00  7.1428451795566970e+00  7.1428448374165328e+00  7.1428444847091281e+00  7.1428441211353402e+00  7.1428437463871299e+00  7.1428433601473049e+00  7.1428429620892731e+00  7.1428425518767726e+00  7.1428421291636024e+00  7.1428416935933425e+00  7.1428412447990590e+00  7.1428407824030105e+00  7.1428403060163488e+00  7.1428398152387942e+00  7.1428393096583145e+00  7.1428387888507938e+00  7.1428382523796827e+00  7.1428376997956544e+00  7.1428371306362219e+00  7.1428365444253838e+00  7.1428359406732271e+00  7.1428353188755320e+00  7.1428346785133607e+00  7.1428340190526489e+00  7.1428333399437518e+00  7.1428326406210152e+00  7.1428319205023154e+00  7.1428311789885734e+00  7.1428304154632887e+00  7.1428296292920255e+00  7.1428288198219088e+00  7.1428279863810831e+00  7.1428271282781841e+00  7.1428262448017659e+00  7.1428253352197322e+00  7.1428243987787390e+00  7.1428234347035868e+00  7.1428224421965911e+00  7.1428214204369480e+00  7.1428203685800495e+00  7.1428192857568247e+00  7.1428181710730128e+00  7.1428170236084556e+00  7.1428158424163533e+00  7.1428146265224974e+00  7.1428133749244740e+00  7.1428120865908697e+00  7.1428107604604243e+00  7.1428093954411853e+00  7.1428079904096222e+00  7.1428065442097095e+00  7.1428050556520146e+00  7.1428035235127174e+00  7.1428019465326358e+00  7.1428003234162007e+00  7.1427986528304208e+00  7.1427969334037984e+00  7.1427951637252365e+00  7.1427933423428795e+00  7.1427914677629651e+00  7.1427895384486133e+00  7.1427875528185796e+00  7.1427855092459920e+00  7.1427834060570348e+00  7.1427812415296037e+00  7.1427790138919169e+00  7.1427767213210869e+00  7.1427743619416546e+00  7.1427719338240863e+00  7.1427694349832134e+00  7.1427668633766332e+00  7.1427642169030712e+00  7.1427614934006840e+00  7.1427586906453318e+00  7.1427558063487755e+00  7.1427528381568468e+00  7.1427497836475489e+00  7.1427466403291104e+00  7.1427434056379875e+00  7.1427400769367946e+00  7.1427366515121911e+00  7.1427331265726943e+00  7.1427294992464425e+00  7.1427257665788817e+00  7.1427219255303935e+00  7.1427179729738555e+00  7.1427139056921227e+00  7.1427097203754490e+00  7.1427054136188204e+00  7.1427009819192318e+00  7.1426964216728575e+00  7.1426917291721708e+00  7.1426869006029614e+00  7.1426819320412651e+00  7.1426768194502221e+00  7.1426715586768301e+00  7.1426661454486098e+00  7.1426605753701713e+00  7.1426548439196917e+00  7.1426489464452736e+00  7.1426428781612206e+00  7.1426366341441856e+00  7.1426302093292140e+00  7.1426235985056925e+00  7.1426167963131482e+00  7.1426097972369593e+00  7.1426025956039050e+00  7.1425951855776306e+00  7.1425875611539480e+00  7.1425797161560185e+00  7.1425716442293927e+00  7.1425633388369052e+00  7.1425547932534181e+00  7.1425460005604293e+00  7.1425369536405086e+00  7.1425276451715805e+00  7.1425180676210438e+00  7.1425082132397097e+00  7.1424980740555917e+00  7.1424876418674899e+00  7.1424769082383959e+00  7.1424658644887211e+00  7.1424545016893157e+00  7.1424428106542797e+00  7.1424307819335997e+00  7.1424184058055289e+00  7.1424056722687803e+00  7.1423925710344820e+00  7.1423790915178946e+00  7.1423652228299019e+00  7.1423509537682461e+00  7.1423362728085094e+00  7.1423211680948411e+00  7.1423056274304155e+00  7.1422896382676022e+00  7.1422731876978718e+00  7.1422562624413866e+00  7.1422388488363087e+00  7.1422209328277884e+00  7.1422024999566371e+00  7.1421835353476641e+00  7.1421640236976911e+00  7.1421439492631977e+00  7.1421232958476271e+00  7.1421020467883105e+00  7.1420801849430218e+00  7.1420576926761310e+00  7.1420345518443629e+00  7.1420107437821345e+00  7.1419862492864734e+00  7.1419610486014928e+00  7.1419351214024189e+00  7.1419084467791407e+00  7.1418810032192948e+00  7.1418527685908417e+00  7.1418237201241510e+00  7.1417938343935621e+00  7.1417630872983784e+00  7.1417314540433408e+00  7.1416989091185101e+00  7.1416654262785766e+00  7.1416309785215386e+00  7.1415955380667899e+00  7.1415590763325314e+00  7.1415215639125522e+00  7.1414829705522926e+00  7.1414432651242459e+00  7.1414024156026077e+00  7.1413603890371951e+00  7.1413171515265885e+00  7.1412726681904788e+00  7.1412269031412343e+00  7.1411798194545879e+00  7.1411313791394733e+00  7.1410815431069876e+00  7.1410302711384173e+00  7.1409775218523288e+00  7.1409232526706843e+00  7.1408674197839552e+00  7.1408099781152021e+00  7.1407508812830862e+00  7.1406900815637933e+00  7.1406275298518249e+00  7.1405631756196133e+00  7.1404969668759399e+00  7.1404288501231470e+00  7.1403587703130151e+00  7.1402866708013901e+00  7.1402124933014113e+00  7.1401361778353518e+00  7.1400576626850469e+00  7.1399768843408058e+00  7.1398937774488100e+00  7.1398082747569385e+00  7.1397203070589601e+00  7.1396298031370504e+00  7.1395366897025978e+00  7.1394408913351946e+00  7.1393423304198445e+00  7.1392409270822270e+00  7.1391365991220290e+00  7.1390292619442732e+00  7.1389188284885554e+00  7.1388052091561516e+00  7.1386883117349074e+00  7.1385680413218626e+00  7.1384443002435169e+00  7.1383169879736759e+00  7.1381860010487985e+00  7.1380512329807750e+00  7.1379125741670215e+00  7.1377699117978608e+00  7.1376231297610602e+00  7.1374721085434443e+00  7.1373167251294936e+00  7.1371568528968581e+00  7.1369923615086313e+00  7.1368231168023364e+00  7.1366489806754867e+00  7.1364698109676263e+00  7.1362854613387299e+00  7.1360957811438572e+00  7.1359006153039113e+00  7.1356998041724164e+00  7.1354931833981716e+00  7.1352805837836257e+00  7.1350618311388594e+00  7.1348367461310289e+00  7.1346051441291305e+00  7.1343668350439096e+00  7.1341216231627795e+00  7.1338693069795838e+00  7.1336096790190213e+00  7.1333425256555918e+00  7.1330676269268443e+00  7.1327847563407616e+00  7.1324936806770989e+00  7.1321941597824550e+00  7.1318859463589011e+00  7.1315687857459222e+00  7.1312424156954783e+00  7.1309065661399584e+00  7.1305609589527617e+00  7.1302053077013081e+00  7.1298393173922063e+00  7.1294626842083177e+00  7.1290750952374546e+00  7.1286762281924441e+00  7.1282657511222549e+00  7.1278433221139208e+00  7.1274085889849150e+00  7.1269611889657050e+00  7.1265007483721368e+00  7.1260268822673023e+00  7.1255391941125810e+00  7.1250372754074576e+00  7.1245207053177744e+00  7.1239890502919980e+00  7.1234418636651569e+00  7.1228786852499928e+00  7.1222990409149274e+00  7.1217024421484