<?xml version="1.0"?>
<VTKFile type="UnstructuredGrid"  version="0.1"  >
<UnstructuredGrid>
<Piece  NumberOfPoints="1001" NumberOfCells="1000">
<Points>
<DataArray  type="Float64"  NumberOfComponents="3"  format="ascii">0 0 0  0.001 0 0  0.002 0 0  0.003 0 0  0.004 0 0  0.005 0 0  0.006 0 0  0.007 0 0  0.008 0 0  0.008999999999999999 0 0  0.01 0 0  0.011 0 0  0.012 0 0  0.013 0 0  0.014 0 0  0.015 0 0  0.016 0 0  0.017 0 0  0.018 0 0  0.019 0 0  0.02 0 0  0.021 0 0  0.022 0 0  0.023 0 0  0.024 0 0  0.025 0 0  0.026 0 0  0.027 0 0  0.028 0 0  0.029 0 0  0.03 0 0  0.031 0 0  0.032 0 0  0.033 0 0  0.034 0 0  0.035 0 0  0.036 0 0  0.037 0 0  0.038 0 0  0.039 0 0  0.04 0 0  0.041 0 0  0.042 0 0  0.043 0 0  0.044 0 0  0.045 0 0  0.046 0 0  0.047 0 0  0.048 0 0  0.049 0 0  0.05 0 0  0.051 0 0  0.052 0 0  0.053 0 0  0.054 0 0  0.055 0 0  0.056 0 0  0.057 0 0  0.058 0 0  0.059 0 0  0.06 0 0  0.061 0 0  0.062 0 0  0.063 0 0  0.064 0 0  0.065 0 0  0.066 0 0  0.067 0 0  0.068 0 0  0.06900000000000001 0 0  0.07000000000000001 0 0  0.07099999999999999 0 0  0.07199999999999999 0 0  0.073 0 0  0.074 0 0  0.075 0 0  0.076 0 0  0.077 0 0  0.078 0 0  0.079 0 0  0.08 0 0  0.081 0 0  0.082 0 0  0.083 0 0  0.08400000000000001 0 0  0.08500000000000001 0 0  0.08599999999999999 0 0  0.08699999999999999 0 0  0.08799999999999999 0 0  0.089 0 0  0.09 0 0  0.091 0 0  0.092 0 0  0.093 0 0  0.094 0 0  0.095 0 0  0.096 0 0  0.097 0 0  0.098 0 0  0.099 0 0  0.1 0 0  0.101 0 0  0.102 0 0  0.103 0 0  0.104 0 0  0.105 0 0  0.106 0 0  0.107 0 0  0.108 0 0  0.109 0 0  0.11 0 0  0.111 0 0  0.112 0 0  0.113 0 0  0.114 0 0  0.115 0 0  0.116 0 0  0.117 0 0  0.118 0 0  0.119 0 0  0.12 0 0  0.121 0 0  0.122 0 0  0.123 0 0  0.124 0 0  0.125 0 0  0.126 0 0  0.127 0 0  0.128 0 0  0.129 0 0  0.13 0 0  0.131 0 0  0.132 0 0  0.133 0 0  0.134 0 0  0.135 0 0  0.136 0 0  0.137 0 0  0.138 0 0  0.139 0 0  0.14 0 0  0.141 0 0  0.142 0 0  0.143 0 0  0.144 0 0  0.145 0 0  0.146 0 0  0.147 0 0  0.148 0 0  0.149 0 0  0.15 0 0  0.151 0 0  0.152 0 0  0.153 0 0  0.154 0 0  0.155 0 0  0.156 0 0  0.157 0 0  0.158 0 0  0.159 0 0  0.16 0 0  0.161 0 0  0.162 0 0  0.163 0 0  0.164 0 0  0.165 0 0  0.166 0 0  0.167 0 0  0.168 0 0  0.169 0 0  0.17 0 0  0.171 0 0  0.172 0 0  0.173 0 0  0.174 0 0  0.175 0 0  0.176 0 0  0.177 0 0  0.178 0 0  0.179 0 0  0.18 0 0  0.181 0 0  0.182 0 0  0.183 0 0  0.184 0 0  0.185 0 0  0.186 0 0  0.187 0 0  0.188 0 0  0.189 0 0  0.19 0 0  0.191 0 0  0.192 0 0  0.193 0 0  0.194 0 0  0.195 0 0  0.196 0 0  0.197 0 0  0.198 0 0  0.199 0 0  0.2 0 0  0.201 0 0  0.202 0 0  0.203 0 0  0.204 0 0  0.205 0 0  0.206 0 0  0.207 0 0  0.208 0 0  0.209 0 0  0.21 0 0  0.211 0 0  0.212 0 0  0.213 0 0  0.214 0 0  0.215 0 0  0.216 0 0  0.217 0 0  0.218 0 0  0.219 0 0  0.22 0 0  0.221 0 0  0.222 0 0  0.223 0 0  0.224 0 0  0.225 0 0  0.226 0 0  0.227 0 0  0.228 0 0  0.229 0 0  0.23 0 0  0.231 0 0  0.232 0 0  0.233 0 0  0.234 0 0  0.235 0 0  0.236 0 0  0.237 0 0  0.238 0 0  0.239 0 0  0.24 0 0  0.241 0 0  0.242 0 0  0.243 0 0  0.244 0 0  0.245 0 0  0.246 0 0  0.247 0 0  0.248 0 0  0.249 0 0  0.25 0 0  0.251 0 0  0.252 0 0  0.253 0 0  0.254 0 0  0.255 0 0  0.256 0 0  0.257 0 0  0.258 0 0  0.259 0 0  0.26 0 0  0.261 0 0  0.262 0 0  0.263 0 0  0.264 0 0  0.265 0 0  0.266 0 0  0.267 0 0  0.268 0 0  0.269 0 0  0.27 0 0  0.271 0 0  0.272 0 0  0.273 0 0  0.274 0 0  0.275 0 0  0.276 0 0  0.277 0 0  0.278 0 0  0.279 0 0  0.28 0 0  0.281 0 0  0.282 0 0  0.283 0 0  0.284 0 0  0.285 0 0  0.286 0 0  0.287 0 0  0.288 0 0  0.289 0 0  0.29 0 0  0.291 0 0  0.292 0 0  0.293 0 0  0.294 0 0  0.295 0 0  0.296 0 0  0.297 0 0  0.298 0 0  0.299 0 0  0.3 0 0  0.301 0 0  0.302 0 0  0.303 0 0  0.304 0 0  0.305 0 0  0.306 0 0  0.307 0 0  0.308 0 0  0.309 0 0  0.31 0 0  0.311 0 0  0.312 0 0  0.313 0 0  0.314 0 0  0.315 0 0  0.316 0 0  0.317 0 0  0.318 0 0  0.319 0 0  0.32 0 0  0.321 0 0  0.322 0 0  0.323 0 0  0.324 0 0  0.325 0 0  0.326 0 0  0.327 0 0  0.328 0 0  0.329 0 0  0.33 0 0  0.331 0 0  0.332 0 0  0.333 0 0  0.334 0 0  0.335 0 0  0.336 0 0  0.337 0 0  0.338 0 0  0.339 0 0  0.34 0 0  0.341 0 0  0.342 0 0  0.343 0 0  0.344 0 0  0.345 0 0  0.346 0 0  0.347 0 0  0.348 0 0  0.349 0 0  0.35 0 0  0.351 0 0  0.352 0 0  0.353 0 0  0.354 0 0  0.355 0 0  0.356 0 0  0.357 0 0  0.358 0 0  0.359 0 0  0.36 0 0  0.361 0 0  0.362 0 0  0.363 0 0  0.364 0 0  0.365 0 0  0.366 0 0  0.367 0 0  0.368 0 0  0.369 0 0  0.37 0 0  0.371 0 0  0.372 0 0  0.373 0 0  0.374 0 0  0.375 0 0  0.376 0 0  0.377 0 0  0.378 0 0  0.379 0 0  0.38 0 0  0.381 0 0  0.382 0 0  0.383 0 0  0.384 0 0  0.385 0 0  0.386 0 0  0.387 0 0  0.388 0 0  0.389 0 0  0.39 0 0  0.391 0 0  0.392 0 0  0.393 0 0  0.394 0 0  0.395 0 0  0.396 0 0  0.397 0 0  0.398 0 0  0.399 0 0  0.4 0 0  0.401 0 0  0.402 0 0  0.403 0 0  0.404 0 0  0.405 0 0  0.406 0 0  0.407 0 0  0.408 0 0  0.409 0 0  0.41 0 0  0.411 0 0  0.412 0 0  0.413 0 0  0.414 0 0  0.415 0 0  0.416 0 0  0.417 0 0  0.418 0 0  0.419 0 0  0.42 0 0  0.421 0 0  0.422 0 0  0.423 0 0  0.424 0 0  0.425 0 0  0.426 0 0  0.427 0 0  0.428 0 0  0.429 0 0  0.43 0 0  0.431 0 0  0.432 0 0  0.433 0 0  0.434 0 0  0.435 0 0  0.436 0 0  0.437 0 0  0.438 0 0  0.439 0 0  0.44 0 0  0.441 0 0  0.442 0 0  0.443 0 0  0.444 0 0  0.445 0 0  0.446 0 0  0.447 0 0  0.448 0 0  0.449 0 0  0.45 0 0  0.451 0 0  0.452 0 0  0.453 0 0  0.454 0 0  0.455 0 0  0.456 0 0  0.457 0 0  0.458 0 0  0.459 0 0  0.46 0 0  0.461 0 0  0.462 0 0  0.463 0 0  0.464 0 0  0.465 0 0  0.466 0 0  0.467 0 0  0.468 0 0  0.469 0 0  0.47 0 0  0.471 0 0  0.472 0 0  0.473 0 0  0.474 0 0  0.475 0 0  0.476 0 0  0.477 0 0  0.478 0 0  0.479 0 0  0.48 0 0  0.481 0 0  0.482 0 0  0.483 0 0  0.484 0 0  0.485 0 0  0.486 0 0  0.487 0 0  0.488 0 0  0.489 0 0  0.49 0 0  0.491 0 0  0.492 0 0  0.493 0 0  0.494 0 0  0.495 0 0  0.496 0 0  0.497 0 0  0.498 0 0  0.499 0 0  0.5 0 0  0.501 0 0  0.502 0 0  0.503 0 0  0.504 0 0  0.505 0 0  0.506 0 0  0.507 0 0  0.508 0 0  0.509 0 0  0.51 0 0  0.511 0 0  0.512 0 0  0.513 0 0  0.514 0 0  0.515 0 0  0.516 0 0  0.517 0 0  0.518 0 0  0.519 0 0  0.52 0 0  0.521 0 0  0.522 0 0  0.523 0 0  0.524 0 0  0.525 0 0  0.526 0 0  0.527 0 0  0.528 0 0  0.529 0 0  0.53 0 0  0.531 0 0  0.532 0 0  0.533 0 0  0.534 0 0  0.535 0 0  0.536 0 0  0.537 0 0  0.538 0 0  0.539 0 0  0.54 0 0  0.541 0 0  0.542 0 0  0.543 0 0  0.544 0 0  0.545 0 0  0.546 0 0  0.547 0 0  0.548 0 0  0.549 0 0  0.55 0 0  0.551 0 0  0.552 0 0  0.553 0 0  0.554 0 0  0.555 0 0  0.556 0 0  0.5570000000000001 0 0  0.5580000000000001 0 0  0.5590000000000001 0 0  0.5600000000000001 0 0  0.5610000000000001 0 0  0.5620000000000001 0 0  0.5629999999999999 0 0  0.5639999999999999 0 0  0.5649999999999999 0 0  0.5659999999999999 0 0  0.5669999999999999 0 0  0.5679999999999999 0 0  0.569 0 0  0.57 0 0  0.571 0 0  0.572 0 0  0.573 0 0  0.574 0 0  0.575 0 0  0.576 0 0  0.577 0 0  0.578 0 0  0.579 0 0  0.58 0 0  0.581 0 0  0.582 0 0  0.583 0 0  0.584 0 0  0.585 0 0  0.586 0 0  0.587 0 0  0.588 0 0  0.589 0 0  0.59 0 0  0.591 0 0  0.592 0 0  0.593 0 0  0.594 0 0  0.595 0 0  0.596 0 0  0.597 0 0  0.598 0 0  0.599 0 0  0.6 0 0  0.601 0 0  0.602 0 0  0.603 0 0  0.604 0 0  0.605 0 0  0.606 0 0  0.607 0 0  0.608 0 0  0.609 0 0  0.61 0 0  0.611 0 0  0.612 0 0  0.613 0 0  0.614 0 0  0.615 0 0  0.616 0 0  0.617 0 0  0.618 0 0  0.619 0 0  0.62 0 0  0.621 0 0  0.622 0 0  0.623 0 0  0.624 0 0  0.625 0 0  0.626 0 0  0.627 0 0  0.628 0 0  0.629 0 0  0.63 0 0  0.631 0 0  0.632 0 0  0.633 0 0  0.634 0 0  0.635 0 0  0.636 0 0  0.637 0 0  0.638 0 0  0.639 0 0  0.64 0 0  0.641 0 0  0.642 0 0  0.643 0 0  0.644 0 0  0.645 0 0  0.646 0 0  0.647 0 0  0.648 0 0  0.649 0 0  0.65 0 0  0.651 0 0  0.652 0 0  0.653 0 0  0.654 0 0  0.655 0 0  0.656 0 0  0.657 0 0  0.658 0 0  0.659 0 0  0.66 0 0  0.661 0 0  0.662 0 0  0.663 0 0  0.664 0 0  0.665 0 0  0.666 0 0  0.667 0 0  0.668 0 0  0.669 0 0  0.67 0 0  0.671 0 0  0.672 0 0  0.673 0 0  0.674 0 0  0.675 0 0  0.676 0 0  0.677 0 0  0.678 0 0  0.679 0 0  0.68 0 0  0.681 0 0  0.6820000000000001 0 0  0.6830000000000001 0 0  0.6840000000000001 0 0  0.6850000000000001 0 0  0.6860000000000001 0 0  0.6870000000000001 0 0  0.6879999999999999 0 0  0.6889999999999999 0 0  0.6899999999999999 0 0  0.6909999999999999 0 0  0.6919999999999999 0 0  0.6929999999999999 0 0  0.694 0 0  0.695 0 0  0.696 0 0  0.697 0 0  0.698 0 0  0.699 0 0  0.7 0 0  0.701 0 0  0.702 0 0  0.703 0 0  0.704 0 0  0.705 0 0  0.706 0 0  0.707 0 0  0.708 0 0  0.709 0 0  0.71 0 0  0.711 0 0  0.712 0 0  0.713 0 0  0.714 0 0  0.715 0 0  0.716 0 0  0.717 0 0  0.718 0 0  0.719 0 0  0.72 0 0  0.721 0 0  0.722 0 0  0.723 0 0  0.724 0 0  0.725 0 0  0.726 0 0  0.727 0 0  0.728 0 0  0.729 0 0  0.73 0 0  0.731 0 0  0.732 0 0  0.733 0 0  0.734 0 0  0.735 0 0  0.736 0 0  0.737 0 0  0.738 0 0  0.739 0 0  0.74 0 0  0.741 0 0  0.742 0 0  0.743 0 0  0.744 0 0  0.745 0 0  0.746 0 0  0.747 0 0  0.748 0 0  0.749 0 0  0.75 0 0  0.751 0 0  0.752 0 0  0.753 0 0  0.754 0 0  0.755 0 0  0.756 0 0  0.757 0 0  0.758 0 0  0.759 0 0  0.76 0 0  0.761 0 0  0.762 0 0  0.763 0 0  0.764 0 0  0.765 0 0  0.766 0 0  0.767 0 0  0.768 0 0  0.769 0 0  0.77 0 0  0.771 0 0  0.772 0 0  0.773 0 0  0.774 0 0  0.775 0 0  0.776 0 0  0.777 0 0  0.778 0 0  0.779 0 0  0.78 0 0  0.781 0 0  0.782 0 0  0.783 0 0  0.784 0 0  0.785 0 0  0.786 0 0  0.787 0 0  0.788 0 0  0.789 0 0  0.79 0 0  0.791 0 0  0.792 0 0  0.793 0 0  0.794 0 0  0.795 0 0  0.796 0 0  0.797 0 0  0.798 0 0  0.799 0 0  0.8 0 0  0.801 0 0  0.802 0 0  0.803 0 0  0.804 0 0  0.805 0 0  0.806 0 0  0.8070000000000001 0 0  0.8080000000000001 0 0  0.8090000000000001 0 0  0.8100000000000001 0 0  0.8110000000000001 0 0  0.8120000000000001 0 0  0.8129999999999999 0 0  0.8139999999999999 0 0  0.8149999999999999 0 0  0.8159999999999999 0 0  0.8169999999999999 0 0  0.8179999999999999 0 0  0.819 0 0  0.82 0 0  0.821 0 0  0.822 0 0  0.823 0 0  0.824 0 0  0.825 0 0  0.826 0 0  0.827 0 0  0.828 0 0  0.829 0 0  0.83 0 0  0.831 0 0  0.832 0 0  0.833 0 0  0.834 0 0  0.835 0 0  0.836 0 0  0.837 0 0  0.838 0 0  0.839 0 0  0.84 0 0  0.841 0 0  0
[...]
<PointData  Scalars="f_20-0"> 
<DataArray  type="Float64"  Name="f_20-0"  format="ascii">2.0000000000045501e+00  2.0000000000046136e+00  2.0000000000048028e+00  2.0000000000051248e+00  2.0000000000055862e+00  2.0000000000062008e+00  2.0000000000069851e+00  2.0000000000079581e+00  2.0000000000091442e+00  2.0000000000105760e+00  2.0000000000122893e+00  2.0000000000143272e+00  2.0000000000167435e+00  2.0000000000195990e+00  2.0000000000229665e+00  2.0000000000269291e+00  2.0000000000315876e+00  2.0000000000370592e+00  2.0000000000434799e+00  2.0000000000510076e+00  2.0000000000598304e+00  2.0000000000701643e+00  2.0000000000822622e+00  2.0000000000964193e+00  2.0000000001129794e+00  2.0000000001323412e+00  2.0000000001549698e+00  2.0000000001814051e+00  2.0000000002122773e+00  2.0000000002483191e+00  2.0000000002903788e+00  2.0000000003394436e+00  2.0000000003966605e+00  2.0000000004633582e+00  2.0000000005410792e+00  2.0000000006316125e+00  2.0000000007370327e+00  2.0000000008597429e+00  2.0000000010025283e+00  2.0000000011686123e+00  2.0000000013617267e+00  2.0000000015861894e+00  2.0000000018469937e+00  2.0000000021499154e+00  2.0000000025016282e+00  2.0000000029098426e+00  2.0000000033834655e+00  2.0000000039327737e+00  2.0000000045696344e+00  2.0000000053077325e+00  2.0000000061628516e+00  2.0000000071531847e+00  2.0000000082996947e+00  2.0000000096265298e+00  2.0000000111614917e+00  2.0000000129365816e+00  2.0000000149886148e+00  2.0000000173599370e+00  2.0000000200992303e+00  2.0000000232624400e+00  2.0000000269138356e+00  2.0000000311272199e+00  2.0000000359873127e+00  2.0000000415913259e+00  2.0000000480507669e+00  2.0000000554934885e+00  2.0000000640660258e+00  2.0000000739362664e+00  2.0000000852964903e+00  2.0000000983668178e+00  2.0000001133991554e+00  2.0000001306816708e+00  2.0000001505438818e+00  2.0000001733624448e+00  2.0000001995677352e+00  2.0000002296513131e+00  2.0000002641744077e+00  2.0000003037775409e+00  2.0000003491914415e+00  2.0000004012494288e+00  2.0000004609014423e+00  2.0000005292299399e+00  2.0000006074678960e+00  2.0000006970191873e+00  2.0000007994816440e+00  2.0000009166731378e+00  2.0000010506610599e+00  2.0000012037956458e+00  2.0000013787476099e+00  2.0000015785506462e+00  2.0000018066493892e+00  2.0000020669535186e+00  2.0000023638987754e+00  2.0000027025157325e+00  2.0000030885072722e+00  2.0000035283358444e+00  2.0000040293216816e+00  2.0000045997533111e+00  2.0000052490118474e+00  2.0000059877107064e+00  2.0000068278526033e+00  2.0000077830058882e+00  2.0000088685024928e+00  2.0000101016600715e+00  2.0000115020311489e+00  2.0000130916824435e+00  2.0000148955078711e+00  2.0000169415791382e+00  2.0000192615382413e+00  2.0000218910366900e+00  2.0000248702267696e+00  2.0000282443107582e+00  2.0000320641546461e+00  2.0000363869735844e+00  2.0000412770970937e+00  2.0000468068228896e+00  2.0000530573691195e+00  2.0000601199358292e+00  2.0000680968875906e+00  2.0000771030704616e+00  2.0000872672777903e+00  2.0000987338808431e+00  2.0001116646418504e+00  2.0001262407288118e+00  2.0001426649533398e+00  2.0001611642548682e+00  2.0001819924568718e+00  2.0002054333231847e+00  2.0002318039451783e+00  2.0002614584935183e+00  2.0002947923713053e+00  2.0003322468088691e+00  2.0003743139441332e+00  2.0004215424364529e+00  2.0004745436660802e+00  2.0005339985760280e+00  2.0006006652179829e+00  2.0006753870692071e+00  2.0007591021929620e+00  2.0008528533209509e+00  2.0009577989426051e+00  2.0010752254927482e+00  2.0012065607361684e+00  2.0013533884550556e+00  2.0015174645529088e+00  2.0017007346965388e+00  2.0019053536259745e+00  2.0021337062704885e+00  2.0023884308174380e+00  2.0026724438890824e+00  2.0029889679908996e+00  2.0033415614029599e+00  2.0037341506934707e+00  2.0041710660404446e+00  2.0046570795532470e+00  2.0051974467902438e+00  2.0057979516714597e+00  2.0064649549855984e+00  2.0072054466883920e+00  2.0080271021834042e+00  2.0089383427662613e+00  2.0099484003980850e+00  2.0110673869524205e+00  2.0123063680512527e+00  2.0136774415683090e+00  2.0151938208303641e+00  2.0168699224880897e+00  2.0187214589552420e+00  2.0207655352268943e+00  2.0230207497817969e+00  2.0255072991487371e+00  2.0282470855698547e+00  2.0312638270229941e+00  2.0345831686685862e+00  2.0382327945623402e+00  2.0422425382222427e+00  2.0466444903562473e+00  2.0514731017461640e+00  2.0567652789452717e+00  2.0625604700853430e+00  2.0689007377085384e+00  2.0758308151485871e+00  2.0833981425948278e+00  2.0916528785957880e+00  2.1006478824139423e+00  2.1104386623517146e+00  2.1210832849563075e+00  2.1326422399070388e+00  2.1451782554259897e+00  2.1587560592658415e+00  2.1734420807529125e+00  2.1893040900323748e+00  2.2064107716057837e+00  2.2248312304898201e+00  2.2446344308697888e+00  2.2658885689664863e+00  2.2886603839560329e+00  2.3130144131322807e+00  2.3390122000090905e+00  2.3667114666291220e+00  2.3961652638580500e+00  2.4274211157609629e+00  2.4605201761331910e+00  2.4954964167410063e+00  2.5323758676795700e+00  2.5711759303599591e+00  2.6119047829134825e+00  2.6545608962156542e+00  2.6991326763034786e+00  2.7455982457646440e+00  2.7939253728465507e+00  2.8440715527450049e+00  2.8959842409992302e+00  2.9496012343727149e+00  3.0048511902696662e+00  3.0616542718385240e+00  3.1199229026275872e+00  3.1795626121183158e+00  3.2404729517512956e+00  3.3025484602046711e+00  3.3656796566594123e+00  3.4297540415187751e+00  3.4946570854337939e+00  3.5602731893922259e+00  3.6264866009122549e+00  3.6931822739011881e+00  3.7602466623581425e+00  3.8275684406989758e+00  3.8950391459618108e+00  3.9625537394354682e+00  4.0300110872865931e+00  4.0973143615109180e+00  4.1643713639859063e+00  4.2310947775570984e+00  4.2974023489628213e+00  4.3632170090138045e+00  4.4284669358243702e+00  4.4930855670716650e+00  4.5570115672713518e+00  4.6201887559342438e+00  4.6825660022380475e+00  4.7440970915391034e+00  4.8047405686840321e+00  4.8644595626815805e+00  4.9232215968768331e+00  4.9809983883479862e+00  5.0377656398301118e+00  5.0935028270695604e+00  5.1481929841325673e+00  5.2018224888362612e+00  5.2543808501424865e+00  5.3058604990552771e+00  5.3562565842924119e+00  5.4055667737591202e+00  5.4537910626370074e+00  5.5009315887119454e+00  5.5469924553995629e+00  5.5919795627838305e+00  5.6359004468616138e+00  5.6787641270815445e+00  5.7205809621777055e+00  5.7613625142253149e+00  5.8011214207853152e+00  5.8398712749559083e+00  5.8776265131101493e+00  5.9144023100684668e+00  5.9502144814321731e+00  5.9850793927876262e+00  6.0190138754796960e+00  6.0520351486468886e+00  6.0841607472079069e+00  6.1154084554900665e+00  6.1457962461934015e+00  6.1753422243895759e+00  6.2040645762620032e+00  6.2319815223019237e+00  6.2591112746848072e+00  6.2854719985615732e+00  6.3110817770100223e+00  6.3359585794028872e+00  6.3601202329602717e+00  6.3835843972655306e+00  6.4063685415349791e+00  6.4284899244428519e+00  6.4499655763139234e+00  6.4708122835067341e+00  6.4910465748207269e+00  6.5106847097705103e+00  6.5297426685799964e+00  6.5482361437584053e+00  6.5661805331288239e+00  6.5835909341883543e+00  6.6004821396869682e+00  6.6168686343195304e+00  6.6327645924327712e+00  6.6481838766556605e+00  6.6631400373680911e+00  6.6776463129287142e+00  6.6917156305885408e+00  6.7053606080221693e+00  6.7185935554135714e+00  6.7314264780380375e+00  6.7438710792862828e+00  6.7559387640808950e+00  6.7676406426390727e+00  6.7789875345393140e+00  6.7899899730529789e+00  6.8006582097049133e+00  6.8110022190301320e+00  6.8210317034963595e+00  6.8307560985647875e+00  6.8401845778636803e+00  6.8493260584517737e+00  6.8581892061503629e+00  6.8667824409249132e+00  6.8751139422987917e+00  6.8831916547833174e+00  6.8910232933098277e+00  6.8986163486509620e+00  6.9059780928194456e+00  6.9131155844340864e+00  6.9200356740436257e+00  6.9267450094001894e+00  6.9332500406749462e+00  6.9395570256095676e+00  6.9456720345977310e+00  6.9516009556917053e+00  6.9573494995298004e+00  6.9629232041808704e+00  6.9683274399028887e+00  6.9735674138128907e+00  6.9786481744661799e+00  6.9835746163431134e+00  6.9883514842420995e+00  6.9929833775778958e+00  6.9974747545845162e+00  7.0018299364224275e+00  7.0060531111899342e+00  7.0101483378389107e+00  7.0141195499952378e+00  7.0179705596844784e+00  7.0217050609635629e+00  7.0253266334593221e+00  7.0288387458148778e+00  7.0322447590450672e+00  7.0355479298020756e+00  7.0387514135526548e+00  7.0418582676683021e+00  7.0448714544298872e+00  7.0477938439482504e+00  7.0506282170023580e+00  7.0533772677966207e+00  7.0560436066390304e+00  7.0586297625417957e+00  7.0611381857461426e+00  7.0635712501730197e+00  7.0659312558013792e+00  7.0682204309757681e+00  7.0704409346449282e+00  7.0725948585331091e+00  7.0746842292458014e+00  7.0767110103115272e+00  7.0786771041614003e+00  7.0805843540480753e+00  7.0824345459056959e+00  7.0842294101524930e+00  7.0859706234375528e+00  7.0876598103333421e+00  7.0892985449755344e+00  7.0908883526515689e+00  7.0924307113394933e+00  7.0939270531984766e+00  7.0953787660124208e+00  7.0967871945880656e+00  7.0981536421089082e+00  7.0994793714462903e+00  7.1007656064289204e+00  7.1020135330721015e+00  7.1032243007678773e+00  7.1043990234373293e+00  7.1055387806461390e+00  7.1066446186846184e+00  7.1077175516132405e+00  7.1087585622748266e+00  7.1097686032743761e+00  7.1107485979275831e+00  7.1116994411790611e+00  7.1126220004911707e+00  7.1135171167044566e+00  7.1143856048705745e+00  7.1152282550585744e+00  7.1160458331354235e+00  7.1168390815216025e+00  7.1176087199225648e+00  7.1183554460368521e+00  7.1190799362416186e+00  7.1197828462563209e+00  7.1204648117852569e+00  7.1211264491396591e+00  7.1217683558400315e+00  7.1223911111993425e+00  7.1229952768877212e+00  7.1235813974792670e+00  7.1241500009815644e+00  7.1247015993484384e+00  7.1252366889765799e+00  7.1257557511864533e+00  7.1262592526881363e+00  7.1267476460325003e+00  7.1272213700482441e+00  7.1276808502652589e+00  7.1281264993247548e+00  7.1285587173766274e+00  7.1289778924644489e+00  7.1293844008985241e+00  7.1297786076174159e+00  7.1301608665383034e+00  7.1305315208966018e+00  7.1308909035751453e+00  7.1312393374233709e+00  7.1315771355667756e+00  7.1319046017070367e+00  7.1322220304131312e+00  7.1325297074037080e+00  7.1328279098211080e+00  7.1331169064972668e+00  7.1333969582118417e+00  7.1336683179427798e+00  7.1339312311096474e+00  7.1341859358099589e+00  7.1344326630487132e+00  7.1346716369614258e+00  7.1349030750307820e+00  7.1351271882972043e+00  7.1353441815634175e+00  7.1355542535932184e+00  7.1357575973045897e+00  7.1359543999572743e+00  7.1361448433348755e+00  7.1363291039216330e+00  7.1365073530738794e+00  7.1366797571862444e+00  7.1368464778526413e+00  7.1370076720220466e+00  7.1371634921490452e+00  7.1373140863391678e+00  7.1374595984889639e+00  7.1376001684208079e+00  7.1377359320123750e+00  7.1378670213207736e+00  7.1379935647012767e+00  7.1381156869206572e+00  7.1382335092650750e+00  7.1383471496424935e+00  7.1384567226796767e+00  7.1385623398137241e+00  7.1386641093782179e+00  7.1387621366840150e+00  7.1388565240947566e+00  7.1389473710972124e+00  7.1390347743665119e+00  7.1391188278264979e+00  7.1391996227052319e+00  7.1392772475859623e+00  7.1393517884535971e+00  7.1394233287370286e+00  7.1394919493474367e+00  7.1395577287128340e+00  7.1396207428090825e+00  7.1396810651876397e+00  7.1397387670002548e+00  7.1397939170208904e+00  7.1398465816650853e+00  7.1398968250070034e+00  7.1399447087944266e+00  7.1399902924618512e+00  7.1400336331419592e+00  7.1400747856756261e+00  7.1401138026206512e+00  7.1401507342593789e+00  7.1401856286053809e+00  7.1402185314092836e+00  7.1402494861639445e+00  7.1402785341089885e+00  7.1403057142348754e+00  7.1403310632865304e+00  7.1403546157666220e+00  7.1403764039385296e+00  7.1403964578290386e+00  7.1404148052308223e+00  7.1404314717047095e+00  7.1404464805817600e+00  7.1404598529651651e+00  7.1404716077319659e+00  7.1404817615346259e+00  7.1404903288024082e+00  7.1404973217425978e+00  7.1405027503415246e+00  7.1405066223654448e+00  7.1405089433611986e+00  7.1405097166566964e+00  7.1405089433611995e+00  7.1405066223654474e+00  7.1405027503415237e+00  7.1404973217425933e+00  7.1404903288024091e+00  7.1404817615346268e+00  7.1404716077319650e+00  7.1404598529651642e+00  7.1404464805817600e+00  7.1404314717047095e+00  7.1404148052308223e+00  7.1403964578290386e+00  7.1403764039385305e+00  7.1403546157666256e+00  7.1403310632865322e+00  7.1403057142348763e+00  7.1402785341089894e+00  7.1402494861639445e+00  7.1402185314092845e+00  7.1401856286053773e+00  7.1401507342593780e+00  7.1401138026206503e+00  7.1400747856756244e+00  7.1400336331419574e+00  7.1399902924618504e+00  7.1399447087944266e+00  7.1398968250070025e+00  7.1398465816650818e+00  7.1397939170208868e+00  7.1397387670002512e+00  7.1396810651876343e+00  7.1396207428090808e+00  7.1395577287128340e+00  7.1394919493474376e+00  7.1394233287370286e+00  7.1393517884535971e+00  7.1392772475859640e+00  7.1391996227052337e+00  7.1391188278264952e+00  7.1390347743665101e+00  7.1389473710972089e+00  7.1388565240947566e+00  7.1387621366840133e+00  7.1386641093782179e+00  7.1385623398137241e+00  7.1384567226796776e+00  7.1383471496424962e+00  7.1382335092650759e+00  7.1381156869206555e+00  7.1379935647012749e+00  7.1378670213207709e+00  7.1377359320123732e+00  7.1376001684208061e+00  7.1374595984889622e+00  7.1373140863391669e+00  7.1371634921490470e+00  7.1370076720220474e+00  7.1368464778526430e+00  7.1366797571862426e+00  7.1365073530738785e+00  7.1363291039216303e+00  7.1361448433348711e+00  7.1359543999572699e+00  7.1357575973045870e+00  7.1355542535932130e+00  7.1353441815634175e+00  7.1351271882972052e+00  7.1349030750307829e+00  7.1346716369614267e+00  7.1344326630487158e+00  7.1341859358099580e+00  7.1339312311096483e+00  7.1336683179427798e+00  7.1333969582118417e+00  7.1331169064972650e+00  7.1328279098211063e+00  7.1325297074037088e+00  7.1322220304131303e+00  7.1319046017070358e+00  7.1315771355667730e+00  7.1312393374233691e+00  7.1308909035751435e+00  7.1305315208965983e+00  7.1301608665382998e+00  7.1297786076174141e+00  7.1293844008985241e+00  7.1289778924644489e+00  7.1285587173766292e+00  7.1281264993247584e+00  7.1276808502652598e+00  7.1272213700482459e+00  7.1267476460325012e+00  7.1262592526881363e+00  7.1257557511864515e+00  7.1252366889765808e+00  7.1247015993484384e+00  7.1241500009815644e+00  7.1235813974792670e+00  7.1229952768877212e+00  7.1223911111993417e+00  7.1217683558400324e+00  7.1211264491396582e+00  7.1204648117852543e+00  7.1197828462563209e+00  7.1190799362416195e+00  7.1183554460368512e+00  7.1176087199225648e+00  7.1168390815216025e+00  7.1160458331354235e+00  7.1152282550585735e+00  7.1143856048705763e+00  7.1135171167044566e+00  7.1126220004911698e+00  7.1116994411790619e+00  7.1107485979275848e+00  7.1097686032743779e+00  7.1087585622748302e+00  7.1077175516132440e+00  7.1066446186846211e+00  7.1055387806461443e+00  7.1043990234373311e+00  7.1032243007678826e+00  7.1020135330721033e+00  7.1007656064289213e+00  7.0994793714462903e+00  7.0981536421089082e+00  7.0967871945880656e+00  7.0953787660124208e+00  7.0939270531984766e+00  7.0924307113394951e+00  7.0908883526515698e+00  7.0892985449755361e+00  7.0876598103333439e+00  7.0859706234375510e+00  7.0842294101524930e+00  7.0824345459056950e+00  7.0805843540480780e+00  7.0786771041614029e+00  7.0767110103115272e+00  7.0746842292458005e+00  7.0725948585331073e+00  7.0704409346449246e+00  7.0682204309757672e+00  7.0659312558013783e+00  7.0635712501730170e+00  7.0611381857461399e+00  7.0586297625417949e+00  7.0560436066390313e+00  7.0533772677966251e+00  7.0506282170023615e+00  7.0477938439482557e+00  7.0448714544298907e+00  7.0418582676683021e+00  7.0387514135526521e+00  7.0355479298020729e+00  7.0322447590450672e+00  7.0288387458148778e+00  7.0253266334593194e+00  7.0217050609635603e+00  7.0179705596844784e+00  7.0141195499952378e+00  7.0101483378389124e+00  7.0060531111899351e+00  7.0018299364224301e+00  6.9974747545845206e+00  6.9929833775778993e+00  6.9883514842420995e+00  6.9835746163431098e+00  6.9786481744661808e+00  6.9735674138128907e+00  6.9683274399028878e+00  6.9629232041808686e+00  6.9573494995297995e+00  6.9516009556917062e+00  6.9456720345977310e+00  6.9395570256095684e+00  6.9332500406749462e+00  6.9267450094001903e+00  6.9200356740436275e+00  6.9131155844340855e+00  6.9059780928194447e+00  6.8986163486509602e+00  6.8910232933098294e+00  6.8831916547833174e+00  6.8751139422987952e+00  6.8667824409249150e+00  6.8581892061503682e+00  6.8493260584517799e+00  6.8401845778636838e+00  6.8307560985647884e+00  6.8210317034963612e+00  6.8110022190301303e+00  6.8006582097049151e+00  6.7899899730529789e+00  6.7789875345393140e+00  6.7676406426390736e+00  6.7559387640808950e+00  6.7438710792862828e+00  6.7314264780380375e+00  6.7185935554135723e+00  6.7053606080221710e+00  6.6917156305885417e+00  6.6776463129287151e+00  6.6631400373680938e+00  6.6481838766556640e+00  6.6327645924327729e+00  6.6168686343195322e+00  6.6004821396869673e+00  6.5835909341883569e+00  6.5661805331288283e+00  6.5482361437584133e+00  6.5297426685800035e+00  6.5106847097705138e+00  6.4910465748207304e+00  6.4708122835067341e+00  6.4499655763139252e+00  6.4284899244428511e+00  6.4063685415349791e+00  6.3835843972655306e+00  6.3601202329602717e+00  6.3359585794028899e+00  6.3110817770100240e+00  6.2854719985615750e+00  6.2591112746848099e+00  6.2319815223019299e+00  6.2040645762620068e+00  6.1753422243895795e+00  6.1457962461934015e+00  6.1154084554900674e+00  6.0841607472079078e+00  6.0520351486468904e+00  6.0190138754796987e+00  5.9850793927876316e+00  5.9502144814321776e+00  5.9144023100684668e+00  5.8776265131101484e+00  5.8398712749559101e+00  5.8011214207853197e+00  5.7613625142253184e+00  5.7205809621777091e+00  5.6787641270815490e+00  5.6359004468616192e+00  5.5919795627838367e+00  5.5469924553995709e+00  5.5009315887119543e+00  5.4537910626370154e+00  5.4055667737591300e+00  5.3562565842924155e+00  5.3058604990552825e+00  5.2543808501424936e+00  5.2018224888362674e+00  5.1481929841325735e+00  5.0935028270695675e+00  5.0377656398301180e+00  4.9809983883479934e+00  4.9232215968768376e+00  4.8644595626815832e+00  4.8047405686840365e+00  4.7440970915391061e+00  4.6825660022380537e+00  4.6201887559342465e+00  4.5570115672713563e+00  4.4930855670716685e+00  4.4284669358243756e+00  4.3632170090138089e+00  4.2974023489628248e+00  4.2310947775571011e+00  4.1643713639859090e+00  4.0973143615109207e+00  4.0300110872865949e+00  3.9625537394354713e+00  3.8950391459618130e+00  3.8275684406989772e+00  3.7602466623581434e+00  3.6931822739011908e+00  3.6264866009122576e+00  3.5602731893922268e+00  3.4946570854337962e+00  3.4297540415187764e+00  3.3656796566594145e+00  3.3025484602046724e+00  3.2404729517512978e+00  3.1795626121183158e+00  3.1199229026275890e+00  3.0616542718385258e+00  3.0048511902696675e+00  2.9496012343727158e+00  2.8959842409992311e+00  2.8440715527450049e+00  2.7939253728465490e+00  2.7455982457646435e+00  2.6991326763034773e+00  2.6545608962156528e+00  2.6119047829134812e+00  2.5711759303599573e+00  2.5323758676795705e+00  2.4954964167410054e+00  2.4605201761331910e+00  2.4274211157609602e+00  2.3961652638580486e+00  2.3667114666291211e+00  2.3390122000090896e+00  2.3130144131322812e+00  2.2886603839560329e+00  2.2658885689664863e+00  2.2446344308697883e+00  2.2248312304898192e+00  2.2064107716057837e+00  2.1893040900323744e+00  2.1734420807529129e+00  2.1587560592658428e+00  2.1451782554259906e+00  2.1326422399070410e+00  2.1210832849563088e+00  2.1104386623517137e+00  2.1006478824139414e+00  2.0916528785957871e+00  2.0833981425948278e+00  2.0758308151485867e+00  2.0689007377085376e+00  2.0625604700853417e+00  2.0567652789452695e+00  2.0514731017461632e+00  2.0466444903562477e+00  2.0422425382222436e+00  2.0382327945623415e+00  2.0345831686685880e+00  2.0312638270229955e+00  2.0282470855698