<?xml version="1.0"?>
<VTKFile type="UnstructuredGrid"  version="0.1"  >
<UnstructuredGrid>
<Piece  NumberOfPoints="1001" NumberOfCells="1000">
<Points>
<DataArray  type="Float64"  NumberOfComponents="3"  format="ascii">0 0 0  0.001 0 0  0.002 0 0  0.003 0 0  0.004 0 0  0.005 0 0  0.006 0 0  0.007 0 0  0.008 0 0  0.008999999999999999 0 0  0.01 0 0  0.011 0 0  0.012 0 0  0.013 0 0  0.014 0 0  0.015 0 0  0.016 0 0  0.017 0 0  0.018 0 0  0.019 0 0  0.02 0 0  0.021 0 0  0.022 0 0  0.023 0 0  0.024 0 0  0.025 0 0  0.026 0 0  0.027 0 0  0.028 0 0  0.029 0 0  0.03 0 0  0.031 0 0  0.032 0 0  0.033 0 0  0.034 0 0  0.035 0 0  0.036 0 0  0.037 0 0  0.038 0 0  0.039 0 0  0.04 0 0  0.041 0 0  0.042 0 0  0.043 0 0  0.044 0 0  0.045 0 0  0.046 0 0  0.047 0 0  0.048 0 0  0.049 0 0  0.05 0 0  0.051 0 0  0.052 0 0  0.053 0 0  0.054 0 0  0.055 0 0  0.056 0 0  0.057 0 0  0.058 0 0  0.059 0 0  0.06 0 0  0.061 0 0  0.062 0 0  0.063 0 0  0.064 0 0  0.065 0 0  0.066 0 0  0.067 0 0  0.068 0 0  0.06900000000000001 0 0  0.07000000000000001 0 0  0.07099999999999999 0 0  0.07199999999999999 0 0  0.073 0 0  0.074 0 0  0.075 0 0  0.076 0 0  0.077 0 0  0.078 0 0  0.079 0 0  0.08 0 0  0.081 0 0  0.082 0 0  0.083 0 0  0.08400000000000001 0 0  0.08500000000000001 0 0  0.08599999999999999 0 0  0.08699999999999999 0 0  0.08799999999999999 0 0  0.089 0 0  0.09 0 0  0.091 0 0  0.092 0 0  0.093 0 0  0.094 0 0  0.095 0 0  0.096 0 0  0.097 0 0  0.098 0 0  0.099 0 0  0.1 0 0  0.101 0 0  0.102 0 0  0.103 0 0  0.104 0 0  0.105 0 0  0.106 0 0  0.107 0 0  0.108 0 0  0.109 0 0  0.11 0 0  0.111 0 0  0.112 0 0  0.113 0 0  0.114 0 0  0.115 0 0  0.116 0 0  0.117 0 0  0.118 0 0  0.119 0 0  0.12 0 0  0.121 0 0  0.122 0 0  0.123 0 0  0.124 0 0  0.125 0 0  0.126 0 0  0.127 0 0  0.128 0 0  0.129 0 0  0.13 0 0  0.131 0 0  0.132 0 0  0.133 0 0  0.134 0 0  0.135 0 0  0.136 0 0  0.137 0 0  0.138 0 0  0.139 0 0  0.14 0 0  0.141 0 0  0.142 0 0  0.143 0 0  0.144 0 0  0.145 0 0  0.146 0 0  0.147 0 0  0.148 0 0  0.149 0 0  0.15 0 0  0.151 0 0  0.152 0 0  0.153 0 0  0.154 0 0  0.155 0 0  0.156 0 0  0.157 0 0  0.158 0 0  0.159 0 0  0.16 0 0  0.161 0 0  0.162 0 0  0.163 0 0  0.164 0 0  0.165 0 0  0.166 0 0  0.167 0 0  0.168 0 0  0.169 0 0  0.17 0 0  0.171 0 0  0.172 0 0  0.173 0 0  0.174 0 0  0.175 0 0  0.176 0 0  0.177 0 0  0.178 0 0  0.179 0 0  0.18 0 0  0.181 0 0  0.182 0 0  0.183 0 0  0.184 0 0  0.185 0 0  0.186 0 0  0.187 0 0  0.188 0 0  0.189 0 0  0.19 0 0  0.191 0 0  0.192 0 0  0.193 0 0  0.194 0 0  0.195 0 0  0.196 0 0  0.197 0 0  0.198 0 0  0.199 0 0  0.2 0 0  0.201 0 0  0.202 0 0  0.203 0 0  0.204 0 0  0.205 0 0  0.206 0 0  0.207 0 0  0.208 0 0  0.209 0 0  0.21 0 0  0.211 0 0  0.212 0 0  0.213 0 0  0.214 0 0  0.215 0 0  0.216 0 0  0.217 0 0  0.218 0 0  0.219 0 0  0.22 0 0  0.221 0 0  0.222 0 0  0.223 0 0  0.224 0 0  0.225 0 0  0.226 0 0  0.227 0 0  0.228 0 0  0.229 0 0  0.23 0 0  0.231 0 0  0.232 0 0  0.233 0 0  0.234 0 0  0.235 0 0  0.236 0 0  0.237 0 0  0.238 0 0  0.239 0 0  0.24 0 0  0.241 0 0  0.242 0 0  0.243 0 0  0.244 0 0  0.245 0 0  0.246 0 0  0.247 0 0  0.248 0 0  0.249 0 0  0.25 0 0  0.251 0 0  0.252 0 0  0.253 0 0  0.254 0 0  0.255 0 0  0.256 0 0  0.257 0 0  0.258 0 0  0.259 0 0  0.26 0 0  0.261 0 0  0.262 0 0  0.263 0 0  0.264 0 0  0.265 0 0  0.266 0 0  0.267 0 0  0.268 0 0  0.269 0 0  0.27 0 0  0.271 0 0  0.272 0 0  0.273 0 0  0.274 0 0  0.275 0 0  0.276 0 0  0.277 0 0  0.278 0 0  0.279 0 0  0.28 0 0  0.281 0 0  0.282 0 0  0.283 0 0  0.284 0 0  0.285 0 0  0.286 0 0  0.287 0 0  0.288 0 0  0.289 0 0  0.29 0 0  0.291 0 0  0.292 0 0  0.293 0 0  0.294 0 0  0.295 0 0  0.296 0 0  0.297 0 0  0.298 0 0  0.299 0 0  0.3 0 0  0.301 0 0  0.302 0 0  0.303 0 0  0.304 0 0  0.305 0 0  0.306 0 0  0.307 0 0  0.308 0 0  0.309 0 0  0.31 0 0  0.311 0 0  0.312 0 0  0.313 0 0  0.314 0 0  0.315 0 0  0.316 0 0  0.317 0 0  0.318 0 0  0.319 0 0  0.32 0 0  0.321 0 0  0.322 0 0  0.323 0 0  0.324 0 0  0.325 0 0  0.326 0 0  0.327 0 0  0.328 0 0  0.329 0 0  0.33 0 0  0.331 0 0  0.332 0 0  0.333 0 0  0.334 0 0  0.335 0 0  0.336 0 0  0.337 0 0  0.338 0 0  0.339 0 0  0.34 0 0  0.341 0 0  0.342 0 0  0.343 0 0  0.344 0 0  0.345 0 0  0.346 0 0  0.347 0 0  0.348 0 0  0.349 0 0  0.35 0 0  0.351 0 0  0.352 0 0  0.353 0 0  0.354 0 0  0.355 0 0  0.356 0 0  0.357 0 0  0.358 0 0  0.359 0 0  0.36 0 0  0.361 0 0  0.362 0 0  0.363 0 0  0.364 0 0  0.365 0 0  0.366 0 0  0.367 0 0  0.368 0 0  0.369 0 0  0.37 0 0  0.371 0 0  0.372 0 0  0.373 0 0  0.374 0 0  0.375 0 0  0.376 0 0  0.377 0 0  0.378 0 0  0.379 0 0  0.38 0 0  0.381 0 0  0.382 0 0  0.383 0 0  0.384 0 0  0.385 0 0  0.386 0 0  0.387 0 0  0.388 0 0  0.389 0 0  0.39 0 0  0.391 0 0  0.392 0 0  0.393 0 0  0.394 0 0  0.395 0 0  0.396 0 0  0.397 0 0  0.398 0 0  0.399 0 0  0.4 0 0  0.401 0 0  0.402 0 0  0.403 0 0  0.404 0 0  0.405 0 0  0.406 0 0  0.407 0 0  0.408 0 0  0.409 0 0  0.41 0 0  0.411 0 0  0.412 0 0  0.413 0 0  0.414 0 0  0.415 0 0  0.416 0 0  0.417 0 0  0.418 0 0  0.419 0 0  0.42 0 0  0.421 0 0  0.422 0 0  0.423 0 0  0.424 0 0  0.425 0 0  0.426 0 0  0.427 0 0  0.428 0 0  0.429 0 0  0.43 0 0  0.431 0 0  0.432 0 0  0.433 0 0  0.434 0 0  0.435 0 0  0.436 0 0  0.437 0 0  0.438 0 0  0.439 0 0  0.44 0 0  0.441 0 0  0.442 0 0  0.443 0 0  0.444 0 0  0.445 0 0  0.446 0 0  0.447 0 0  0.448 0 0  0.449 0 0  0.45 0 0  0.451 0 0  0.452 0 0  0.453 0 0  0.454 0 0  0.455 0 0  0.456 0 0  0.457 0 0  0.458 0 0  0.459 0 0  0.46 0 0  0.461 0 0  0.462 0 0  0.463 0 0  0.464 0 0  0.465 0 0  0.466 0 0  0.467 0 0  0.468 0 0  0.469 0 0  0.47 0 0  0.471 0 0  0.472 0 0  0.473 0 0  0.474 0 0  0.475 0 0  0.476 0 0  0.477 0 0  0.478 0 0  0.479 0 0  0.48 0 0  0.481 0 0  0.482 0 0  0.483 0 0  0.484 0 0  0.485 0 0  0.486 0 0  0.487 0 0  0.488 0 0  0.489 0 0  0.49 0 0  0.491 0 0  0.492 0 0  0.493 0 0  0.494 0 0  0.495 0 0  0.496 0 0  0.497 0 0  0.498 0 0  0.499 0 0  0.5 0 0  0.501 0 0  0.502 0 0  0.503 0 0  0.504 0 0  0.505 0 0  0.506 0 0  0.507 0 0  0.508 0 0  0.509 0 0  0.51 0 0  0.511 0 0  0.512 0 0  0.513 0 0  0.514 0 0  0.515 0 0  0.516 0 0  0.517 0 0  0.518 0 0  0.519 0 0  0.52 0 0  0.521 0 0  0.522 0 0  0.523 0 0  0.524 0 0  0.525 0 0  0.526 0 0  0.527 0 0  0.528 0 0  0.529 0 0  0.53 0 0  0.531 0 0  0.532 0 0  0.533 0 0  0.534 0 0  0.535 0 0  0.536 0 0  0.537 0 0  0.538 0 0  0.539 0 0  0.54 0 0  0.541 0 0  0.542 0 0  0.543 0 0  0.544 0 0  0.545 0 0  0.546 0 0  0.547 0 0  0.548 0 0  0.549 0 0  0.55 0 0  0.551 0 0  0.552 0 0  0.553 0 0  0.554 0 0  0.555 0 0  0.556 0 0  0.5570000000000001 0 0  0.5580000000000001 0 0  0.5590000000000001 0 0  0.5600000000000001 0 0  0.5610000000000001 0 0  0.5620000000000001 0 0  0.5629999999999999 0 0  0.5639999999999999 0 0  0.5649999999999999 0 0  0.5659999999999999 0 0  0.5669999999999999 0 0  0.5679999999999999 0 0  0.569 0 0  0.57 0 0  0.571 0 0  0.572 0 0  0.573 0 0  0.574 0 0  0.575 0 0  0.576 0 0  0.577 0 0  0.578 0 0  0.579 0 0  0.58 0 0  0.581 0 0  0.582 0 0  0.583 0 0  0.584 0 0  0.585 0 0  0.586 0 0  0.587 0 0  0.588 0 0  0.589 0 0  0.59 0 0  0.591 0 0  0.592 0 0  0.593 0 0  0.594 0 0  0.595 0 0  0.596 0 0  0.597 0 0  0.598 0 0  0.599 0 0  0.6 0 0  0.601 0 0  0.602 0 0  0.603 0 0  0.604 0 0  0.605 0 0  0.606 0 0  0.607 0 0  0.608 0 0  0.609 0 0  0.61 0 0  0.611 0 0  0.612 0 0  0.613 0 0  0.614 0 0  0.615 0 0  0.616 0 0  0.617 0 0  0.618 0 0  0.619 0 0  0.62 0 0  0.621 0 0  0.622 0 0  0.623 0 0  0.624 0 0  0.625 0 0  0.626 0 0  0.627 0 0  0.628 0 0  0.629 0 0  0.63 0 0  0.631 0 0  0.632 0 0  0.633 0 0  0.634 0 0  0.635 0 0  0.636 0 0  0.637 0 0  0.638 0 0  0.639 0 0  0.64 0 0  0.641 0 0  0.642 0 0  0.643 0 0  0.644 0 0  0.645 0 0  0.646 0 0  0.647 0 0  0.648 0 0  0.649 0 0  0.65 0 0  0.651 0 0  0.652 0 0  0.653 0 0  0.654 0 0  0.655 0 0  0.656 0 0  0.657 0 0  0.658 0 0  0.659 0 0  0.66 0 0  0.661 0 0  0.662 0 0  0.663 0 0  0.664 0 0  0.665 0 0  0.666 0 0  0.667 0 0  0.668 0 0  0.669 0 0  0.67 0 0  0.671 0 0  0.672 0 0  0.673 0 0  0.674 0 0  0.675 0 0  0.676 0 0  0.677 0 0  0.678 0 0  0.679 0 0  0.68 0 0  0.681 0 0  0.6820000000000001 0 0  0.6830000000000001 0 0  0.6840000000000001 0 0  0.6850000000000001 0 0  0.6860000000000001 0 0  0.6870000000000001 0 0  0.6879999999999999 0 0  0.6889999999999999 0 0  0.6899999999999999 0 0  0.6909999999999999 0 0  0.6919999999999999 0 0  0.6929999999999999 0 0  0.694 0 0  0.695 0 0  0.696 0 0  0.697 0 0  0.698 0 0  0.699 0 0  0.7 0 0  0.701 0 0  0.702 0 0  0.703 0 0  0.704 0 0  0.705 0 0  0.706 0 0  0.707 0 0  0.708 0 0  0.709 0 0  0.71 0 0  0.711 0 0  0.712 0 0  0.713 0 0  0.714 0 0  0.715 0 0  0.716 0 0  0.717 0 0  0.718 0 0  0.719 0 0  0.72 0 0  0.721 0 0  0.722 0 0  0.723 0 0  0.724 0 0  0.725 0 0  0.726 0 0  0.727 0 0  0.728 0 0  0.729 0 0  0.73 0 0  0.731 0 0  0.732 0 0  0.733 0 0  0.734 0 0  0.735 0 0  0.736 0 0  0.737 0 0  0.738 0 0  0.739 0 0  0.74 0 0  0.741 0 0  0.742 0 0  0.743 0 0  0.744 0 0  0.745 0 0  0.746 0 0  0.747 0 0  0.748 0 0  0.749 0 0  0.75 0 0  0.751 0 0  0.752 0 0  0.753 0 0  0.754 0 0  0.755 0 0  0.756 0 0  0.757 0 0  0.758 0 0  0.759 0 0  0.76 0 0  0.761 0 0  0.762 0 0  0.763 0 0  0.764 0 0  0.765 0 0  0.766 0 0  0.767 0 0  0.768 0 0  0.769 0 0  0.77 0 0  0.771 0 0  0.772 0 0  0.773 0 0  0.774 0 0  0.775 0 0  0.776 0 0  0.777 0 0  0.778 0 0  0.779 0 0  0.78 0 0  0.781 0 0  0.782 0 0  0.783 0 0  0.784 0 0  0.785 0 0  0.786 0 0  0.787 0 0  0.788 0 0  0.789 0 0  0.79 0 0  0.791 0 0  0.792 0 0  0.793 0 0  0.794 0 0  0.795 0 0  0.796 0 0  0.797 0 0  0.798 0 0  0.799 0 0  0.8 0 0  0.801 0 0  0.802 0 0  0.803 0 0  0.804 0 0  0.805 0 0  0.806 0 0  0.8070000000000001 0 0  0.8080000000000001 0 0  0.8090000000000001 0 0  0.8100000000000001 0 0  0.8110000000000001 0 0  0.8120000000000001 0 0  0.8129999999999999 0 0  0.8139999999999999 0 0  0.8149999999999999 0 0  0.8159999999999999 0 0  0.8169999999999999 0 0  0.8179999999999999 0 0  0.819 0 0  0.82 0 0  0.821 0 0  0.822 0 0  0.823 0 0  0.824 0 0  0.825 0 0  0.826 0 0  0.827 0 0  0.828 0 0  0.829 0 0  0.83 0 0  0.831 0 0  0.832 0 0  0.833 0 0  0.834 0 0  0.835 0 0  0.836 0 0  0.837 0 0  0.838 0 0  0.839 0 0  0.84 0 0  0.841 0 0  0
[...]
<PointData  Scalars="f_20-0"> 
<DataArray  type="Float64"  Name="f_20-0"  format="ascii">2.0000000004777618e+00  2.0000000004831349e+00  2.0000000004993677e+00  2.0000000005268048e+00  2.0000000005660277e+00  2.0000000006178662e+00  2.0000000006834169e+00  2.0000000007640630e+00  2.0000000008615006e+00  2.0000000009777739e+00  2.0000000011153172e+00  2.0000000012769994e+00  2.0000000014661801e+00  2.0000000016867783e+00  2.0000000019433455e+00  2.0000000022411539e+00  2.0000000025862987e+00  2.0000000029858165e+00  2.0000000034478158e+00  2.0000000039816341e+00  2.0000000045980131e+00  2.0000000053092997e+00  2.0000000061296799e+00  2.0000000070754416e+00  2.0000000081652769e+00  2.0000000094206261e+00  2.0000000108660725e+00  2.0000000125297923e+00  2.0000000144440655e+00  2.0000000166458594e+00  2.0000000191774965e+00  2.0000000220874083e+00  2.0000000254310017e+00  2.0000000292716389e+00  2.0000000336817556e+00  2.0000000387441319e+00  2.0000000445533344e+00  2.0000000512173597e+00  2.0000000588595004e+00  2.0000000676204577e+00  2.0000000776607512e+00  2.0000000891634420e+00  2.0000001023372311e+00  2.0000001174199649e+00  2.0000001346826126e+00  2.0000001544337764e+00  2.0000001770247913e+00  2.0000002028555071e+00  2.0000002323808306e+00  2.0000002661181266e+00  2.0000003046555892e+00  2.0000003486617071e+00  2.0000003988959576e+00  2.0000004562208940e+00  2.0000005216157870e+00  2.0000005961920366e+00  2.0000006812105529e+00  2.0000007781013673e+00  2.0000008884857454e+00  2.0000010142011146e+00  2.0000011573291445e+00  2.0000013202273812e+00  2.0000015055648599e+00  2.0000017163621879e+00  2.0000019560366340e+00  2.0000022284528383e+00  2.0000025379798179e+00  2.0000028895550179e+00  2.0000032887562624e+00  2.0000037418825385e+00  2.0000042560446674e+00  2.0000048392670275e+00  2.0000055006016328e+00  2.0000062502560212e+00  2.0000070997365569e+00  2.0000080620089427e+00  2.0000091516779448e+00  2.0000103851885349e+00  2.0000117810509144e+00  2.0000133600921539e+00  2.0000151457374784e+00  2.0000171643245528e+00  2.0000194454545026e+00  2.0000220223837859e+00  2.0000249324614954e+00  2.0000282176171380e+00  2.0000319249044902e+00  2.0000361071077104e+00  2.0000408234165374e+00  2.0000461401781156e+00  2.0000521317337765e+00  2.0000588813499545e+00  2.0000664822533567e+00  2.0000750387815343e+00  2.0000846676611412e+00  2.0000954994273727e+00  2.0001076799994428e+00  2.0001213724284255e+00  2.0001367588353727e+00  2.0001540425593771e+00  2.0001734505371576e+00  2.0001952359377815e+00  2.0002196810784163e+00  2.0002471006494136e+00  2.0002778452796730e+00  2.0003123054760983e+00  2.0003509159740327e+00  2.0003941605388986e+00  2.0004425772628549e+00  2.0004967644041520e+00  2.0005573868209980e+00  2.0006251830562167e+00  2.0007009731337098e+00  2.0007856671328179e+00  2.0008802746120731e+00  2.0009859149595544e+00  2.0011038287531111e+00  2.0012353902201094e+00  2.0013821208930449e+00  2.0015457045643554e+00  2.0017280036510297e+00  2.0019310770871237e+00  2.0021571998699406e+00  2.0024088843934695e+00  2.0026889037104678e+00  2.0030003168723631e+00  2.0033464965036707e+00  2.0037311587748246e+00  2.0041583959439029e+00  2.0046327116435418e+00  2.0051590590940163e+00  2.0057428824267118e+00  2.0063901613036008e+00  2.0071074590173827e+00  2.0079019742530946e+00  2.0087815966845608e+00  2.0097549665673387e+00  2.0108315384728557e+00  2.0120216492852943e+00  2.0133365905523535e+00  2.0147886852419430e+00  2.0163913689078243e+00  2.0181592752065978e+00  2.0201083256345647e+00  2.0222558232640639e+00  2.0246205501529451e+00  2.0272228679759814e+00  2.0300848212812217e+00  2.0332302426056863e+00  2.0366848584916797e+00  2.0404763952260279e+00  2.0446346828787574e+00  2.0491917559450687e+00  2.0541819485956752e+00  2.0596419822177134e+00  2.0656110425852905e+00  2.0721308436408652e+00  2.0792456745042553e+00  2.0870024259658488e+00  2.0954505923787337e+00  2.1046422445581858e+00  2.1146319690475495e+00  2.1254767689414042e+00  2.1372359213981236e+00  2.1499707870548788e+00  2.1637445668109718e+00  2.1786220019020743e+00  2.1946690138783915e+00  2.2119522820490118e+00  2.2305387571798563e+00  2.2504951117394865e+00  2.2718871287663256e+00  2.2947790334552978e+00  2.3192327737832334e+00  2.3453072588401795e+00  2.3730575659153472e+00  2.4025341296893288e+00  2.4337819289805434e+00  2.4668396882474619e+00  2.5017391123236101e+00  2.5385041735358906e+00  2.5771504703276626e+00  2.6176846757094814e+00  2.6601040922689645e+00  2.7043963281126313e+00  2.7505391050638974e+00  2.7985002068283737e+00  2.8482375708271528e+00  2.8996995231871843e+00  2.9528251521764224e+00  3.0075448113898475e+00  3.0637807404232542e+00  3.1214477877759621e+00  3.1804542184206563e+00  3.2407025869393946e+00  3.3020906563708849e+00  3.3645123429194648e+00  3.4278586673744935e+00  3.4920186953820722e+00  3.5568804504797686e+00  3.6223317859197870e+00  3.6882612036361908e+00  3.7545586111346205e+00  3.8211160094895571e+00  3.8878281079336761e+00  3.9545928626456939e+00  4.0213119392368339e+00  4.0878911000709737e+00  4.1542405189154827e+00  4.2202750265093787e+00  4.2859142914643282e+00  4.3510829415022148e+00  4.4157106304059228e+00  4.4797320562460783e+00  4.5430869364754187e+00  4.6057199453830799e+00  4.6675806192008009e+00  4.7286232338768741e+00  4.7888066602034520e+00  4.8480942006177772e+00  4.9064534116137617e+00  4.9638559153102202e+00  5.0202772033362129e+00  5.0756964358203049e+00  5.1300962379148363e+00  5.1834624959527273e+00  5.2357841550252688e+00  5.2870530194863168e+00  5.3372635576315757e+00  5.3864127115711282e+00  5.4344997131078943e+00  5.4815259062533812e+00  5.5274945768531021e+00  5.5724107896559669e+00  5.6162812330429146e+00  5.6591140715283661e+00  5.7009188060620035e+00  5.7417061420862598e+00  5.7814878652451833e+00  5.8202767245915377e+00  5.8580863230997879e+00  5.8949310152617693e+00  5.9308258115181740e+00  5.9657862892615947e+00  5.9998285101346989e+00  6.0329689433395615e+00  6.0652243946703308e+00  6.0966119409807797e+00  6.1271488698002905e+00  6.1568526238159347e+00  6.1857407499441797e+00  6.2138308527230137e+00  6.2411405517635528e+00  6.2676874430093408e+00  6.2934890635612204e+00  6.3185628598357599e+00  6.3429261588355335e+00  6.3665961423199846e+00  6.3895898236760322e+00  6.4119240272978564e+00  6.4336153702955361e+00  6.4546802463620701e+00  6.4751348116379930e+00  6.4949949724221598e+00  6.5142763745862826e+00  6.5329943945594557e+00  6.5511641317572336e+00  6.5688004023377529e+00  6.5859177341749291e+00  6.6025303629460002e+00  6.6186522292374637e+00  6.6342969765799804e+00  6.6494779503288699e+00  6.6642081973126732e+00  6.6785004661776499e+00  6.6923672083612482e+00  6.7058205796323973e+00  6.7188724421410200e+00  6.7315343669234133e+00  6.7438176368141400e+00  6.7557332497188352e+00  6.7672919222058097e+00  6.7785040933776095e+00  6.7893799289867829e+00  6.7999293257629141e+00  6.8101619159206903e+00  6.8200870718212405e+00  6.8297139107612788e+00  6.8390512998667852e+00  6.8481078610699075e+00  6.8568919761496829e+00  6.8654117918188557e+00  6.8736752248407234e+00  6.8816899671614102e+00  6.8894634910443218e+00  6.8970030541948830e+00  6.9043157048647634e+00  6.9114082869259486e+00  6.9182874449060030e+00  6.9249596289767963e+00  6.9314310998898474e+00  6.9377079338522192e+00  6.9437960273376280e+00  6.9497011018281132e+00  6.9554287084822155e+00  6.9609842327261964e+00  6.9663728987653375e+00  6.9715997740128417e+00  6.9766697734342911e+00  6.9815876638060130e+00  6.9863580678860702e+00  6.9909854684969135e+00  6.9954742125190545e+00  6.9998285147953707e+00  7.0040524619458955e+00  7.0081500160931967e+00  7.0121250184986135e+00  7.0159811931098215e+00  7.0197221500203639e+00  7.0233513888419052e+00  7.0268723019901103e+00  7.0302881778851631e+00  7.0336022040680399e+00  7.0368174702337134e+00  7.0399369711825992e+00  7.0429636096915438e+00  7.0459001993057804e+00  7.0487494670532671e+00  7.0515140560829126e+00  7.0541965282281778e+00  7.0567993664976090e+00  7.0593249774938380e+00  7.0617756937626392e+00  7.0641537760735957e+00  7.0664614156339693e+00  7.0687007362373473e+00  7.0708737963486410e+00  7.0729825911270048e+00  7.0750290543882244e+00  7.0770150605081268e+00  7.0789424262685374e+00  7.0808129126472759e+00  7.0826282265537159e+00  7.0843900225113403e+00  7.0860999042887638e+00  7.0877594264806438e+00  7.0893700960398460e+00  7.0909333737622946e+00  7.0924506757257904e+00  7.0939233746841630e+00  7.0953528014180289e+00  7.0967402460434155e+00  7.0980869592794980e+00  7.0993941536766583e+00  7.1006630048060240e+00  7.1018946524116737e+00  7.1030902015265998e+00  7.1042507235535490e+00  7.1053772573117859e+00  7.1064708100508467e+00  7.1075323584322661e+00  7.1085628494802844e+00  7.1095632015024988e+00  7.1105343049813623e+00  7.1114770234374740e+00  7.1123921942655208e+00  7.1132806295437376e+00  7.1141431168177043e+00  7.1149804198593092e+00  7.1157932794016601e+00  7.1165824138506801e+00  7.1173485199741711e+00  7.1180922735690242e+00  7.1188143301072984e+00  7.1195153253618324e+00  7.1201958760120405e+00  7.1208565802305417e+00  7.1214980182512342e+00  7.1221207529193924e+00  7.1227253302244060e+00  7.1233122798156732e+00  7.1238821155022194e+00  7.1244353357365835e+00  7.1249724240834302e+00  7.1254938496734388e+00  7.1260000676429058e+00  7.1264915195595382e+00  7.1269686338348972e+00  7.1274318261239067e+00  7.1278814997118536e+00  7.1283180458892934e+00  7.1287418443152415e+00  7.1291532633690515e+00  7.1295526604913189e+00  7.1299403825141887e+00  7.1303167659814140e+00  7.1306821374584830e+00  7.1310368138331448e+00  7.1313811026066460e+00  7.1317153021759889e+00  7.1320397021074857e+00  7.1323545834018960e+00  7.1326602187514396e+00  7.1329568727889132e+00  7.1332448023292008e+00  7.1335242566034038e+00  7.1337954774858297e+00  7.1340586997140880e+00  7.1343141511024912e+00  7.1345620527490006e+00  7.1348026192359040e+00  7.1350360588244452e+00  7.1352625736435975e+00  7.1354823598731567e+00  7.1356956079213498e+00  7.1359025025971512e+00  7.1361032232774386e+00  7.1362979440691969e+00  7.1364868339669041e+00  7.1366700570052677e+00  7.1368477724074610e+00  7.1370201347290116e+00  7.1371872939974645e+00  7.1373493958479797e+00  7.1375065816549803e+00  7.1376589886599859e+00  7.1378067500957476e+00  7.1379499953068093e+00  7.1380888498665884e+00  7.1382234356911054e+00  7.1383538711494481e+00  7.1384802711710567e+00  7.1386027473499407e+00  7.1387214080458898e+00  7.1388363584827497e+00  7.1389477008438682e+00  7.1390555343647186e+00  7.1391599554227998e+00  7.1392610576248501e+00  7.1393589318914126e+00  7.1394536665387882e+00  7.1395453473584238e+00  7.1396340576937343e+00  7.1397198785144163e+00  7.1398028884882327e+00  7.1398831640503149e+00  7.1399607794699653e+00  7.1400358069150007e+00  7.1401083165136026e+00  7.1401783764137283e+00  7.1402460528400544e+00  7.1403114101484766e+00  7.1403745108781855e+00  7.1404354158013055e+00  7.1404941839701550e+00  7.1405508727621037e+00  7.1406055379220996e+00  7.1406582336028626e+00  7.1407090124028034e+00  7.1407579254017008e+00  7.1408050221942085e+00  7.1408503509212045e+00  7.1408939582991007e+00  7.1409358896471327e+00  7.1409761889127212e+00  7.1410148986949995e+00  7.1410520602665413e+00  7.1410877135934356e+00  7.1411218973537292e+00  7.1411546489543847e+00  7.1411860045467943e+00  7.1412159990409725e+00  7.1412446661185145e+00  7.1412720382443791e+00  7.1412981466776193e+00  7.1413230214811207e+00  7.1413466915304333e+00  7.1413691845217855e+00  7.1413905269793290e+00  7.1414107442617043e+00  7.1414298605679845e+00  7.1414478989430430e+00  7.1414648812824355e+00  7.1414808283367917e+00  7.1414957597158111e+00  7.1415096938918738e+00  7.1415226482033178e+00  7.1415346388574008e+00  7.1415456809329836e+00  7.1415557883829468e+00  7.1415649740363847e+00  7.1415732496005679e+00  7.1415806256626926e+00  7.1415871116914538e+00  7.1415927160384216e+00  7.1415974459392357e+00  7.1416013075146445e+00  7.1416043057713603e+00  7.1416064446027727e+00  7.1416077267894877e+00  7.1416081539997105e+00  7.1416077267894877e+00  7.1416064446027727e+00  7.1416043057713603e+00  7.1416013075146445e+00  7.1415974459392357e+00  7.1415927160384216e+00  7.1415871116914538e+00  7.1415806256626926e+00  7.1415732496005679e+00  7.1415649740363847e+00  7.1415557883829468e+00  7.1415456809329836e+00  7.1415346388574008e+00  7.1415226482033178e+00  7.1415096938918738e+00  7.1414957597158111e+00  7.1414808283367917e+00  7.1414648812824355e+00  7.1414478989430430e+00  7.1414298605679845e+00  7.1414107442617043e+00  7.1413905269793290e+00  7.1413691845217855e+00  7.1413466915304333e+00  7.1413230214811207e+00  7.1412981466776193e+00  7.1412720382443791e+00  7.1412446661185145e+00  7.1412159990409725e+00  7.1411860045467943e+00  7.1411546489543847e+00  7.1411218973537292e+00  7.1410877135934356e+00  7.1410520602665413e+00  7.1410148986949995e+00  7.1409761889127221e+00  7.1409358896471335e+00  7.1408939582991016e+00  7.1408503509212027e+00  7.1408050221942068e+00  7.1407579254017000e+00  7.1407090124028025e+00  7.1406582336028634e+00  7.1406055379221014e+00  7.1405508727621054e+00  7.1404941839701559e+00  7.1404354158013073e+00  7.1403745108781864e+00  7.1403114101484775e+00  7.1402460528400544e+00  7.1401783764137283e+00  7.1401083165136017e+00  7.1400358069149998e+00  7.1399607794699653e+00  7.1398831640503140e+00  7.1398028884882319e+00  7.1397198785144145e+00  7.1396340576937325e+00  7.1395453473584221e+00  7.1394536665387864e+00  7.1393589318914108e+00  7.1392610576248483e+00  7.1391599554227971e+00  7.1390555343647160e+00  7.1389477008438682e+00  7.1388363584827479e+00  7.1387214080458854e+00  7.1386027473499380e+00  7.1384802711710549e+00  7.1383538711494472e+00  7.1382234356911063e+00  7.1380888498665884e+00  7.1379499953068093e+00  7.1378067500957476e+00  7.1376589886599859e+00  7.1375065816549803e+00  7.1373493958479797e+00  7.1371872939974645e+00  7.1370201347290116e+00  7.1368477724074610e+00  7.1366700570052677e+00  7.1364868339669041e+00  7.1362979440691987e+00  7.1361032232774386e+00  7.1359025025971512e+00  7.1356956079213498e+00  7.1354823598731576e+00  7.1352625736435993e+00  7.1350360588244470e+00  7.1348026192359049e+00  7.1345620527490006e+00  7.1343141511024912e+00  7.1340586997140880e+00  7.1337954774858305e+00  7.1335242566034047e+00  7.1332448023292008e+00  7.1329568727889132e+00  7.1326602187514396e+00  7.1323545834018960e+00  7.1320397021074848e+00  7.1317153021759880e+00  7.1313811026066452e+00  7.1310368138331430e+00  7.1306821374584821e+00  7.1303167659814140e+00  7.1299403825141860e+00  7.1295526604913153e+00  7.1291532633690480e+00  7.1287418443152379e+00  7.1283180458892890e+00  7.1278814997118509e+00  7.1274318261239040e+00  7.1269686338348954e+00  7.1264915195595364e+00  7.1260000676429049e+00  7.1254938496734388e+00  7.1249724240834302e+00  7.1244353357365826e+00  7.1238821155022194e+00  7.1233122798156732e+00  7.1227253302244060e+00  7.1221207529193924e+00  7.1214980182512342e+00  7.1208565802305417e+00  7.1201958760120423e+00  7.1195153253618351e+00  7.1188143301073001e+00  7.1180922735690260e+00  7.1173485199741719e+00  7.1165824138506810e+00  7.1157932794016610e+00  7.1149804198593118e+00  7.1141431168177052e+00  7.1132806295437403e+00  7.1123921942655226e+00  7.1114770234374740e+00  7.1105343049813623e+00  7.1095632015024988e+00  7.1085628494802853e+00  7.1075323584322678e+00  7.1064708100508494e+00  7.1053772573117877e+00  7.1042507235535508e+00  7.1030902015266006e+00  7.1018946524116746e+00  7.1006630048060231e+00  7.0993941536766574e+00  7.0980869592794980e+00  7.0967402460434137e+00  7.0953528014180280e+00  7.0939233746841639e+00  7.0924506757257904e+00  7.0909333737622946e+00  7.0893700960398478e+00  7.0877594264806447e+00  7.0860999042887656e+00  7.0843900225113403e+00  7.0826282265537159e+00  7.0808129126472759e+00  7.0789424262685374e+00  7.0770150605081268e+00  7.0750290543882244e+00  7.0729825911270048e+00  7.0708737963486410e+00  7.0687007362373473e+00  7.0664614156339702e+00  7.0641537760735975e+00  7.0617756937626410e+00  7.0593249774938398e+00  7.0567993664976107e+00  7.0541965282281796e+00  7.0515140560829135e+00  7.0487494670532680e+00  7.0459001993057804e+00  7.0429636096915438e+00  7.0399369711825992e+00  7.0368174702337134e+00  7.0336022040680399e+00  7.0302881778851631e+00  7.0268723019901111e+00  7.0233513888419061e+00  7.0197221500203639e+00  7.0159811931098197e+00  7.0121250184986126e+00  7.0081500160931958e+00  7.0040524619458928e+00  6.9998285147953681e+00  6.9954742125190528e+00  6.9909854684969144e+00  6.9863580678860719e+00  6.9815876638060157e+00  6.9766697734342911e+00  6.9715997740128408e+00  6.9663728987653375e+00  6.9609842327261964e+00  6.9554287084822155e+00  6.9497011018281132e+00  6.9437960273376280e+00  6.9377079338522183e+00  6.9314310998898465e+00  6.9249596289767945e+00  6.9182874449060030e+00  6.9114082869259486e+00  6.9043157048647634e+00  6.8970030541948839e+00  6.8894634910443244e+00  6.8816899671614120e+00  6.8736752248407260e+00  6.8654117918188584e+00  6.8568919761496856e+00  6.8481078610699093e+00  6.8390512998667852e+00  6.8297139107612788e+00  6.8200870718212405e+00  6.8101619159206903e+00  6.7999293257629141e+00  6.7893799289867829e+00  6.7785040933776095e+00  6.7672919222058088e+00  6.7557332497188352e+00  6.7438176368141400e+00  6.7315343669234142e+00  6.7188724421410218e+00  6.7058205796323991e+00  6.6923672083612500e+00  6.6785004661776517e+00  6.6642081973126768e+00  6.6494779503288726e+00  6.6342969765799831e+00  6.6186522292374672e+00  6.6025303629460010e+00  6.5859177341749309e+00  6.5688004023377546e+00  6.5511641317572336e+00  6.5329943945594557e+00  6.5142763745862844e+00  6.4949949724221616e+00  6.4751348116379939e+00  6.4546802463620718e+00  6.4336153702955370e+00  6.4119240272978573e+00  6.3895898236760349e+00  6.3665961423199864e+00  6.3429261588355343e+00  6.3185628598357608e+00  6.2934890635612204e+00  6.2676874430093417e+00  6.2411405517635545e+00  6.2138308527230164e+00  6.1857407499441841e+00  6.1568526238159382e+00  6.1271488698002941e+00  6.0966119409807806e+00  6.0652243946703308e+00  6.0329689433395624e+00  5.9998285101346989e+00  5.9657862892615938e+00  5.9308258115181731e+00  5.8949310152617693e+00  5.8580863230997888e+00  5.8202767245915403e+00  5.7814878652451860e+00  5.7417061420862590e+00  5.7009188060620035e+00  5.6591140715283679e+00  5.6162812330429155e+00  5.5724107896559669e+00  5.5274945768531021e+00  5.4815259062533803e+00  5.4344997131078943e+00  5.3864127115711282e+00  5.3372635576315766e+00  5.2870530194863159e+00  5.2357841550252688e+00  5.1834624959527273e+00  5.1300962379148389e+00  5.0756964358203067e+00  5.0202772033362146e+00  4.9638559153102220e+00  4.9064534116137652e+00  4.8480942006177798e+00  4.7888066602034538e+00  4.7286232338768750e+00  4.6675806192008027e+00  4.6057199453830835e+00  4.5430869364754223e+00  4.4797320562460818e+00  4.4157106304059255e+00  4.3510829415022174e+00  4.2859142914643300e+00  4.2202750265093822e+00  4.1542405189154863e+00  4.0878911000709763e+00  4.0213119392368366e+00  3.9545928626456970e+00  3.8878281079336783e+00  3.8211160094895567e+00  3.7545586111346205e+00  3.6882612036361908e+00  3.6223317859197874e+00  3.5568804504797691e+00  3.4920186953820727e+00  3.4278586673744948e+00  3.3645123429194657e+00  3.3020906563708867e+00  3.2407025869393951e+00  3.1804542184206572e+00  3.1214477877759634e+00  3.0637807404232547e+00  3.0075448113898480e+00  2.9528251521764224e+00  2.8996995231871847e+00  2.8482375708271590e+00  2.7985002068283795e+00  2.7505391050639023e+00  2.7043963281126362e+00  2.6601040922689694e+00  2.6176846757094858e+00  2.5771504703276671e+00  2.5385041735358951e+00  2.5017391123236146e+00  2.4668396882474659e+00  2.4337819289805469e+00  2.4025341296893328e+00  2.3730575659153517e+00  2.3453072588401831e+00  2.3192327737832366e+00  2.2947790334553000e+00  2.2718871287663