<?xml version="1.0"?>
<VTKFile type="UnstructuredGrid"  version="0.1"  >
<UnstructuredGrid>
<Piece  NumberOfPoints="1001" NumberOfCells="1000">
<Points>
<DataArray  type="Float64"  NumberOfComponents="3"  format="ascii">0 0 0  0.001 0 0  0.002 0 0  0.003 0 0  0.004 0 0  0.005 0 0  0.006 0 0  0.007 0 0  0.008 0 0  0.008999999999999999 0 0  0.01 0 0  0.011 0 0  0.012 0 0  0.013 0 0  0.014 0 0  0.015 0 0  0.016 0 0  0.017 0 0  0.018 0 0  0.019 0 0  0.02 0 0  0.021 0 0  0.022 0 0  0.023 0 0  0.024 0 0  0.025 0 0  0.026 0 0  0.027 0 0  0.028 0 0  0.029 0 0  0.03 0 0  0.031 0 0  0.032 0 0  0.033 0 0  0.034 0 0  0.035 0 0  0.036 0 0  0.037 0 0  0.038 0 0  0.039 0 0  0.04 0 0  0.041 0 0  0.042 0 0  0.043 0 0  0.044 0 0  0.045 0 0  0.046 0 0  0.047 0 0  0.048 0 0  0.049 0 0  0.05 0 0  0.051 0 0  0.052 0 0  0.053 0 0  0.054 0 0  0.055 0 0  0.056 0 0  0.057 0 0  0.058 0 0  0.059 0 0  0.06 0 0  0.061 0 0  0.062 0 0  0.063 0 0  0.064 0 0  0.065 0 0  0.066 0 0  0.067 0 0  0.068 0 0  0.06900000000000001 0 0  0.07000000000000001 0 0  0.07099999999999999 0 0  0.07199999999999999 0 0  0.073 0 0  0.074 0 0  0.075 0 0  0.076 0 0  0.077 0 0  0.078 0 0  0.079 0 0  0.08 0 0  0.081 0 0  0.082 0 0  0.083 0 0  0.08400000000000001 0 0  0.08500000000000001 0 0  0.08599999999999999 0 0  0.08699999999999999 0 0  0.08799999999999999 0 0  0.089 0 0  0.09 0 0  0.091 0 0  0.092 0 0  0.093 0 0  0.094 0 0  0.095 0 0  0.096 0 0  0.097 0 0  0.098 0 0  0.099 0 0  0.1 0 0  0.101 0 0  0.102 0 0  0.103 0 0  0.104 0 0  0.105 0 0  0.106 0 0  0.107 0 0  0.108 0 0  0.109 0 0  0.11 0 0  0.111 0 0  0.112 0 0  0.113 0 0  0.114 0 0  0.115 0 0  0.116 0 0  0.117 0 0  0.118 0 0  0.119 0 0  0.12 0 0  0.121 0 0  0.122 0 0  0.123 0 0  0.124 0 0  0.125 0 0  0.126 0 0  0.127 0 0  0.128 0 0  0.129 0 0  0.13 0 0  0.131 0 0  0.132 0 0  0.133 0 0  0.134 0 0  0.135 0 0  0.136 0 0  0.137 0 0  0.138 0 0  0.139 0 0  0.14 0 0  0.141 0 0  0.142 0 0  0.143 0 0  0.144 0 0  0.145 0 0  0.146 0 0  0.147 0 0  0.148 0 0  0.149 0 0  0.15 0 0  0.151 0 0  0.152 0 0  0.153 0 0  0.154 0 0  0.155 0 0  0.156 0 0  0.157 0 0  0.158 0 0  0.159 0 0  0.16 0 0  0.161 0 0  0.162 0 0  0.163 0 0  0.164 0 0  0.165 0 0  0.166 0 0  0.167 0 0  0.168 0 0  0.169 0 0  0.17 0 0  0.171 0 0  0.172 0 0  0.173 0 0  0.174 0 0  0.175 0 0  0.176 0 0  0.177 0 0  0.178 0 0  0.179 0 0  0.18 0 0  0.181 0 0  0.182 0 0  0.183 0 0  0.184 0 0  0.185 0 0  0.186 0 0  0.187 0 0  0.188 0 0  0.189 0 0  0.19 0 0  0.191 0 0  0.192 0 0  0.193 0 0  0.194 0 0  0.195 0 0  0.196 0 0  0.197 0 0  0.198 0 0  0.199 0 0  0.2 0 0  0.201 0 0  0.202 0 0  0.203 0 0  0.204 0 0  0.205 0 0  0.206 0 0  0.207 0 0  0.208 0 0  0.209 0 0  0.21 0 0  0.211 0 0  0.212 0 0  0.213 0 0  0.214 0 0  0.215 0 0  0.216 0 0  0.217 0 0  0.218 0 0  0.219 0 0  0.22 0 0  0.221 0 0  0.222 0 0  0.223 0 0  0.224 0 0  0.225 0 0  0.226 0 0  0.227 0 0  0.228 0 0  0.229 0 0  0.23 0 0  0.231 0 0  0.232 0 0  0.233 0 0  0.234 0 0  0.235 0 0  0.236 0 0  0.237 0 0  0.238 0 0  0.239 0 0  0.24 0 0  0.241 0 0  0.242 0 0  0.243 0 0  0.244 0 0  0.245 0 0  0.246 0 0  0.247 0 0  0.248 0 0  0.249 0 0  0.25 0 0  0.251 0 0  0.252 0 0  0.253 0 0  0.254 0 0  0.255 0 0  0.256 0 0  0.257 0 0  0.258 0 0  0.259 0 0  0.26 0 0  0.261 0 0  0.262 0 0  0.263 0 0  0.264 0 0  0.265 0 0  0.266 0 0  0.267 0 0  0.268 0 0  0.269 0 0  0.27 0 0  0.271 0 0  0.272 0 0  0.273 0 0  0.274 0 0  0.275 0 0  0.276 0 0  0.277 0 0  0.278 0 0  0.279 0 0  0.28 0 0  0.281 0 0  0.282 0 0  0.283 0 0  0.284 0 0  0.285 0 0  0.286 0 0  0.287 0 0  0.288 0 0  0.289 0 0  0.29 0 0  0.291 0 0  0.292 0 0  0.293 0 0  0.294 0 0  0.295 0 0  0.296 0 0  0.297 0 0  0.298 0 0  0.299 0 0  0.3 0 0  0.301 0 0  0.302 0 0  0.303 0 0  0.304 0 0  0.305 0 0  0.306 0 0  0.307 0 0  0.308 0 0  0.309 0 0  0.31 0 0  0.311 0 0  0.312 0 0  0.313 0 0  0.314 0 0  0.315 0 0  0.316 0 0  0.317 0 0  0.318 0 0  0.319 0 0  0.32 0 0  0.321 0 0  0.322 0 0  0.323 0 0  0.324 0 0  0.325 0 0  0.326 0 0  0.327 0 0  0.328 0 0  0.329 0 0  0.33 0 0  0.331 0 0  0.332 0 0  0.333 0 0  0.334 0 0  0.335 0 0  0.336 0 0  0.337 0 0  0.338 0 0  0.339 0 0  0.34 0 0  0.341 0 0  0.342 0 0  0.343 0 0  0.344 0 0  0.345 0 0  0.346 0 0  0.347 0 0  0.348 0 0  0.349 0 0  0.35 0 0  0.351 0 0  0.352 0 0  0.353 0 0  0.354 0 0  0.355 0 0  0.356 0 0  0.357 0 0  0.358 0 0  0.359 0 0  0.36 0 0  0.361 0 0  0.362 0 0  0.363 0 0  0.364 0 0  0.365 0 0  0.366 0 0  0.367 0 0  0.368 0 0  0.369 0 0  0.37 0 0  0.371 0 0  0.372 0 0  0.373 0 0  0.374 0 0  0.375 0 0  0.376 0 0  0.377 0 0  0.378 0 0  0.379 0 0  0.38 0 0  0.381 0 0  0.382 0 0  0.383 0 0  0.384 0 0  0.385 0 0  0.386 0 0  0.387 0 0  0.388 0 0  0.389 0 0  0.39 0 0  0.391 0 0  0.392 0 0  0.393 0 0  0.394 0 0  0.395 0 0  0.396 0 0  0.397 0 0  0.398 0 0  0.399 0 0  0.4 0 0  0.401 0 0  0.402 0 0  0.403 0 0  0.404 0 0  0.405 0 0  0.406 0 0  0.407 0 0  0.408 0 0  0.409 0 0  0.41 0 0  0.411 0 0  0.412 0 0  0.413 0 0  0.414 0 0  0.415 0 0  0.416 0 0  0.417 0 0  0.418 0 0  0.419 0 0  0.42 0 0  0.421 0 0  0.422 0 0  0.423 0 0  0.424 0 0  0.425 0 0  0.426 0 0  0.427 0 0  0.428 0 0  0.429 0 0  0.43 0 0  0.431 0 0  0.432 0 0  0.433 0 0  0.434 0 0  0.435 0 0  0.436 0 0  0.437 0 0  0.438 0 0  0.439 0 0  0.44 0 0  0.441 0 0  0.442 0 0  0.443 0 0  0.444 0 0  0.445 0 0  0.446 0 0  0.447 0 0  0.448 0 0  0.449 0 0  0.45 0 0  0.451 0 0  0.452 0 0  0.453 0 0  0.454 0 0  0.455 0 0  0.456 0 0  0.457 0 0  0.458 0 0  0.459 0 0  0.46 0 0  0.461 0 0  0.462 0 0  0.463 0 0  0.464 0 0  0.465 0 0  0.466 0 0  0.467 0 0  0.468 0 0  0.469 0 0  0.47 0 0  0.471 0 0  0.472 0 0  0.473 0 0  0.474 0 0  0.475 0 0  0.476 0 0  0.477 0 0  0.478 0 0  0.479 0 0  0.48 0 0  0.481 0 0  0.482 0 0  0.483 0 0  0.484 0 0  0.485 0 0  0.486 0 0  0.487 0 0  0.488 0 0  0.489 0 0  0.49 0 0  0.491 0 0  0.492 0 0  0.493 0 0  0.494 0 0  0.495 0 0  0.496 0 0  0.497 0 0  0.498 0 0  0.499 0 0  0.5 0 0  0.501 0 0  0.502 0 0  0.503 0 0  0.504 0 0  0.505 0 0  0.506 0 0  0.507 0 0  0.508 0 0  0.509 0 0  0.51 0 0  0.511 0 0  0.512 0 0  0.513 0 0  0.514 0 0  0.515 0 0  0.516 0 0  0.517 0 0  0.518 0 0  0.519 0 0  0.52 0 0  0.521 0 0  0.522 0 0  0.523 0 0  0.524 0 0  0.525 0 0  0.526 0 0  0.527 0 0  0.528 0 0  0.529 0 0  0.53 0 0  0.531 0 0  0.532 0 0  0.533 0 0  0.534 0 0  0.535 0 0  0.536 0 0  0.537 0 0  0.538 0 0  0.539 0 0  0.54 0 0  0.541 0 0  0.542 0 0  0.543 0 0  0.544 0 0  0.545 0 0  0.546 0 0  0.547 0 0  0.548 0 0  0.549 0 0  0.55 0 0  0.551 0 0  0.552 0 0  0.553 0 0  0.554 0 0  0.555 0 0  0.556 0 0  0.5570000000000001 0 0  0.5580000000000001 0 0  0.5590000000000001 0 0  0.5600000000000001 0 0  0.5610000000000001 0 0  0.5620000000000001 0 0  0.5629999999999999 0 0  0.5639999999999999 0 0  0.5649999999999999 0 0  0.5659999999999999 0 0  0.5669999999999999 0 0  0.5679999999999999 0 0  0.569 0 0  0.57 0 0  0.571 0 0  0.572 0 0  0.573 0 0  0.574 0 0  0.575 0 0  0.576 0 0  0.577 0 0  0.578 0 0  0.579 0 0  0.58 0 0  0.581 0 0  0.582 0 0  0.583 0 0  0.584 0 0  0.585 0 0  0.586 0 0  0.587 0 0  0.588 0 0  0.589 0 0  0.59 0 0  0.591 0 0  0.592 0 0  0.593 0 0  0.594 0 0  0.595 0 0  0.596 0 0  0.597 0 0  0.598 0 0  0.599 0 0  0.6 0 0  0.601 0 0  0.602 0 0  0.603 0 0  0.604 0 0  0.605 0 0  0.606 0 0  0.607 0 0  0.608 0 0  0.609 0 0  0.61 0 0  0.611 0 0  0.612 0 0  0.613 0 0  0.614 0 0  0.615 0 0  0.616 0 0  0.617 0 0  0.618 0 0  0.619 0 0  0.62 0 0  0.621 0 0  0.622 0 0  0.623 0 0  0.624 0 0  0.625 0 0  0.626 0 0  0.627 0 0  0.628 0 0  0.629 0 0  0.63 0 0  0.631 0 0  0.632 0 0  0.633 0 0  0.634 0 0  0.635 0 0  0.636 0 0  0.637 0 0  0.638 0 0  0.639 0 0  0.64 0 0  0.641 0 0  0.642 0 0  0.643 0 0  0.644 0 0  0.645 0 0  0.646 0 0  0.647 0 0  0.648 0 0  0.649 0 0  0.65 0 0  0.651 0 0  0.652 0 0  0.653 0 0  0.654 0 0  0.655 0 0  0.656 0 0  0.657 0 0  0.658 0 0  0.659 0 0  0.66 0 0  0.661 0 0  0.662 0 0  0.663 0 0  0.664 0 0  0.665 0 0  0.666 0 0  0.667 0 0  0.668 0 0  0.669 0 0  0.67 0 0  0.671 0 0  0.672 0 0  0.673 0 0  0.674 0 0  0.675 0 0  0.676 0 0  0.677 0 0  0.678 0 0  0.679 0 0  0.68 0 0  0.681 0 0  0.6820000000000001 0 0  0.6830000000000001 0 0  0.6840000000000001 0 0  0.6850000000000001 0 0  0.6860000000000001 0 0  0.6870000000000001 0 0  0.6879999999999999 0 0  0.6889999999999999 0 0  0.6899999999999999 0 0  0.6909999999999999 0 0  0.6919999999999999 0 0  0.6929999999999999 0 0  0.694 0 0  0.695 0 0  0.696 0 0  0.697 0 0  0.698 0 0  0.699 0 0  0.7 0 0  0.701 0 0  0.702 0 0  0.703 0 0  0.704 0 0  0.705 0 0  0.706 0 0  0.707 0 0  0.708 0 0  0.709 0 0  0.71 0 0  0.711 0 0  0.712 0 0  0.713 0 0  0.714 0 0  0.715 0 0  0.716 0 0  0.717 0 0  0.718 0 0  0.719 0 0  0.72 0 0  0.721 0 0  0.722 0 0  0.723 0 0  0.724 0 0  0.725 0 0  0.726 0 0  0.727 0 0  0.728 0 0  0.729 0 0  0.73 0 0  0.731 0 0  0.732 0 0  0.733 0 0  0.734 0 0  0.735 0 0  0.736 0 0  0.737 0 0  0.738 0 0  0.739 0 0  0.74 0 0  0.741 0 0  0.742 0 0  0.743 0 0  0.744 0 0  0.745 0 0  0.746 0 0  0.747 0 0  0.748 0 0  0.749 0 0  0.75 0 0  0.751 0 0  0.752 0 0  0.753 0 0  0.754 0 0  0.755 0 0  0.756 0 0  0.757 0 0  0.758 0 0  0.759 0 0  0.76 0 0  0.761 0 0  0.762 0 0  0.763 0 0  0.764 0 0  0.765 0 0  0.766 0 0  0.767 0 0  0.768 0 0  0.769 0 0  0.77 0 0  0.771 0 0  0.772 0 0  0.773 0 0  0.774 0 0  0.775 0 0  0.776 0 0  0.777 0 0  0.778 0 0  0.779 0 0  0.78 0 0  0.781 0 0  0.782 0 0  0.783 0 0  0.784 0 0  0.785 0 0  0.786 0 0  0.787 0 0  0.788 0 0  0.789 0 0  0.79 0 0  0.791 0 0  0.792 0 0  0.793 0 0  0.794 0 0  0.795 0 0  0.796 0 0  0.797 0 0  0.798 0 0  0.799 0 0  0.8 0 0  0.801 0 0  0.802 0 0  0.803 0 0  0.804 0 0  0.805 0 0  0.806 0 0  0.8070000000000001 0 0  0.8080000000000001 0 0  0.8090000000000001 0 0  0.8100000000000001 0 0  0.8110000000000001 0 0  0.8120000000000001 0 0  0.8129999999999999 0 0  0.8139999999999999 0 0  0.8149999999999999 0 0  0.8159999999999999 0 0  0.8169999999999999 0 0  0.8179999999999999 0 0  0.819 0 0  0.82 0 0  0.821 0 0  0.822 0 0  0.823 0 0  0.824 0 0  0.825 0 0  0.826 0 0  0.827 0 0  0.828 0 0  0.829 0 0  0.83 0 0  0.831 0 0  0.832 0 0  0.833 0 0  0.834 0 0  0.835 0 0  0.836 0 0  0.837 0 0  0.838 0 0  0.839 0 0  0.84 0 0  0.841 0 0  0
[...]
<PointData  Scalars="f_20-0"> 
<DataArray  type="Float64"  Name="f_20-0"  format="ascii">6.0210771723989458e+00  6.0218367495834864e+00  6.0241096170486257e+00  6.0278782948918170e+00  6.0331140206027607e+00  6.0397772916715926e+00  6.0478185992006059e+00  6.0571793281187114e+00  6.0677927948328874e+00  6.0795853898196368e+00  6.0924777908604657e+00  6.1063862123585340e+00  6.1212236573463628e+00  6.1369011412357528e+00  6.1533288598395313e+00  6.1704172784414295e+00  6.1880781234198698e+00  6.2062252628638976e+00  6.2247754674980316e+00  6.2436490478373878e+00  6.2627703676509805e+00  6.2820682373952712e+00  6.3014761942177753e+00  6.3209326773936878e+00  6.3403811096586233e+00  6.3597698958818425e+00  6.3790523509530423e+00  6.3981865687143573e+00  6.4171352433461291e+00  6.4358654538999422e+00  6.4543484217504590e+00  6.4725592496852720e+00  6.4904766502358875e+00  6.5080826697274770e+00  6.5253624134332497e+00  6.5423037761926670e+00  6.5588971819132711e+00  6.5751353345361316e+00  6.5910129823110344e+00  6.6065266965997242e+00  6.6216746658994108e+00  6.6364565053480860e+00  6.6508730816285437e+00  6.6649263529200873e+00  6.6786192233454234e+00  6.6919554112153090e+00  6.7049393302759963e+00  6.7175759831056112e+00  6.7298708657779311e+00  6.7418298829086769e+00  6.7534592722147782e+00  6.7647655377463662e+00  6.7757553909901196e+00  6.7864356990882975e+00  6.7968134394671935e+00  6.8068956602202064e+00  6.8166894456422149e+00  6.8262018863629130e+00  6.8354400535755362e+00  6.8444109769042054e+00  6.8531216254969465e+00  6.8615788919723419e+00  6.8697895788857135e+00  6.8777603874154405e+00  6.8854979080019705e+00  6.8930086127007835e+00  6.9002988490370871e+00  6.9073748351733526e+00  6.9142426562223100e+00  6.9209082615570177e+00  6.9273774629867013e+00  6.9336559336823518e+00  6.9397492077496725e+00  6.9456626803590416e+00  6.9514016083529730e+00  6.9569711112610459e+00  6.9623761726608038e+00  6.9676216418305836e+00  6.9727122356468927e+00  6.9776525406847778e+00  6.9824470154849321e+00  6.9870999929556818e+00  6.9916156828822347e+00  6.9959981745189710e+00  7.0002514392437911e+00  7.0043793332562885e+00  7.0083856003039289e+00  7.0122738744225925e+00  7.0160476826796829e+00  7.0197104479097101e+00  7.0232654914337216e+00  7.0267160357551477e+00  7.0300652072258680e+00  7.0333160386772242e+00  7.0364714720115922e+00  7.0395343607508627e+00  7.0425074725388539e+00  7.0453934915953118e+00  7.0481950211195272e+00  7.0509145856422020e+00  7.0535546333244472e+00  7.0561175382032362e+00  7.0586056023827997e+00  7.0610210581718560e+00  7.0633660701666292e+00  7.0656427372799255e+00  7.0678530947166021e+00  7.0699991158959357e+00  7.0720827143215486e+00  7.0741057453995575e+00  7.0760700082057806e+00  7.0779772472028668e+00  7.0798291539082454e+00  7.0816273685138889e+00  7.0833734814588558e+00  7.0850690349556986e+00  7.0867155244716935e+00  7.0883144001660527e+00  7.0898670682840725e+00  7.0913748925094264e+00  7.0928391952755288e+00  7.0942612590371361e+00  7.0956423275031897e+00  7.0969836068319747e+00  7.0982862667896072e+00  7.0995514418728920e+00  7.1007802323975477e+00  7.1019737055527763e+00  7.1031328964231548e+00  7.1042588089788135e+00  7.1053524170348057e+00  7.1064146651806164e+00  7.1074464696806485e+00  7.1084487193466179e+00  7.1094222763826584e+00  7.1103679772039783e+00  7.1112866332299127e+00  7.1121790316520794e+00  7.1130459361784828e+00  7.1138880877542716e+00  7.1147062052598686e+00  7.1155009861872065e+00  7.1162731072947238e+00  7.1170232252418044e+00  7.1177519772032980e+00  7.1184599814647571e+00  7.1191478379989919e+00  7.1198161290245245e+00  7.1204654195465409e+00  7.1210962578808692e+00  7.1217091761615414e+00  7.1223046908324514e+00  7.1228833031236105e+00  7.1234454995125116e+00  7.1239917521710590e+00  7.1245225193985142e+00  7.1250382460409378e+00  7.1255393638975359e+00  7.1260262921143207e+00  7.1264994375655215e+00  7.1269591952231002e+00  7.1274059485147907e+00  7.1278400696709934e+00  7.1282619200609032e+00  7.1286718505182050e+00  7.1290702016566874e+00  7.1294573041760607e+00  7.1298334791583384e+00  7.1301990383550446e+00  7.1305542844655578e+00  7.1308995114068754e+00  7.1312350045750543e+00  7.1315610410986450e+00  7.1318778900842821e+00  7.1321858128547770e+00  7.1324850631798862e+00  7.1327758875000260e+00  7.1330585251431247e+00  7.1333332085348609e+00  7.1336001634024804e+00  7.1338596089723971e+00  7.1341117581617652e+00  7.1343568177642585e+00  7.1345949886301492e+00  7.1348264658409839e+00  7.1350514388789126e+00  7.1352700917909200e+00  7.1354826033480760e+00  7.1356891471999955e+00  7.1358898920246139e+00  7.1360850016734636e+00  7.1362746353125734e+00  7.1364589475591362e+00  7.1366380886140695e+00  7.1368122043905977e+00  7.1369814366389912e+00  7.1371459230675560e+00  7.1373057974600300e+00  7.1374611897894562e+00  7.1376122263286650e+00  7.1377590297574773e+00  7.1379017192666927e+00  7.1380404106590163e+00  7.1381752164469692e+00  7.1383062459479021e+00  7.1384336053761963e+00  7.1385573979327361e+00  7.1386777238917318e+00  7.1387946806849856e+00  7.1389083629836705e+00  7.1390188627776983e+00  7.1391262694527500e+00  7.1392306698650518e+00  7.1393321484139323e+00  7.1394307871122820e+00  7.1395266656549179e+00  7.1396198614849737e+00  7.1397104498583159e+00  7.1397985039061096e+00  7.1398840946955335e+00  7.1399672912887384e+00  7.1400481608000774e+00  7.1401267684516840e+00  7.1402031776274075e+00  7.1402774499252182e+00  7.1403496452080537e+00  7.1404198216532118e+00  7.1404880358003133e+00  7.1405543425978530e+00  7.1406187954484359e+00  7.1406814462526809e+00  7.1407423454518586e+00  7.1408015420693181e+00  7.1408590837506933e+00  7.1409150168029685e+00  7.1409693862324053e+00  7.1410222357813842e+00  7.1410736079642065e+00  7.1411235441018226e+00  7.1411720843556026e+00  7.1412192677601238e+00  7.1412651322550147e+00  7.1413097147158906e+00  7.1413530509844154e+00  7.1413951758974701e+00  7.1414361233155219e+00  7.1414759261501706e+00  7.1415146163908920e+00  7.1415522251310470e+00  7.1415887825931357e+00  7.1416243181533119e+00  7.1416588603652329e+00  7.1416924369832104e+00  7.1417250749847101e+00  7.1417568005921996e+00  7.1417876392943880e+00  7.1418176158668638e+00  7.1418467543921302e+00  7.1418750782790870e+00  7.1419026102819529e+00  7.1419293725186632e+00  7.1419553864887169e+00  7.1419806730905577e+00  7.1420052526384259e+00  7.1420291448787667e+00  7.1420523690061417e+00  7.1420749436787156e+00  7.1420968870332997e+00  7.1421182166999522e+00  7.1421389498162000e+00  7.1421591030408251e+00  7.1421786925672848e+00  7.1421977341367411e+00  7.1422162430507274e+00  7.1422342341834604e+00  7.1422517219938033e+00  7.1422687205368813e+00  7.1422852434753947e+00  7.1423013040905907e+00  7.1423169152929349e+00  7.1423320896324789e+00  7.1423468393089466e+00  7.1423611761815282e+00  7.1423751117784011e+00  7.1423886573059789e+00  7.1424018236579103e+00  7.1424146214238178e+00  7.1424270608977940e+00  7.1424391520866521e+00  7.1424509047179638e+00  7.1424623282478494e+00  7.1424734318685648e+00  7.1424842245158668e+00  7.1424947148761788e+00  7.1425049113935506e+00  7.1425148222764250e+00  7.1425244555042173e+00  7.1425338188337069e+00  7.1425429198052486e+00  7.1425517657488165e+00  7.1425603637898760e+00  7.1425687208550830e+00  7.1425768436778450e+00  7.1425847388036976e+00  7.1425924125955529e+00  7.1425998712387946e+00  7.1426071207462307e+00  7.1426141669629013e+00  7.1426210155707643e+00  7.1426276720932407e+00  7.1426341418996424e+00  7.1426404302094584e+00  7.1426465420965384e+00  7.1426524824931574e+00  7.1426582561939567e+00  7.1426638678597865e+00  7.1426693220214368e+00  7.1426746230832547e+00  7.1426797753266795e+00  7.1426847829136664e+00  7.1426896498900145e+00  7.1426943801886074e+00  7.1426989776325609e+00  7.1427034459382819e+00  7.1427077887184440e+00  7.1427120094848746e+00  7.1427161116513735e+00  7.1427200985364374e+00  7.1427239733659240e+00  7.1427277392756272e+00  7.1427313993137922e+00  7.1427349564435545e+00  7.1427384135453051e+00  7.1427417734190115e+00  7.1427450387864431e+00  7.1427482122933652e+00  7.1427512965116486e+00  7.1427542939413247e+00  7.1427572070126004e+00  7.1427600380877969e+00  7.1427627894632399e+00  7.1427654633711066e+00  7.1427680619812026e+00  7.1427705874027119e+00  7.1427730416858788e+00  7.1427754268236541e+00  7.1427777447532899e+00  7.1427799973578958e+00  7.1427821864679428e+00  7.1427843138627365e+00  7.1427863812718373e+00  7.1427883903764497e+00  7.1427903428107742e+00  7.1427922401633097e+00  7.1427940839781350e+00  7.1427958757561418e+00  7.1427976169562415e+00  7.1427993089965360e+00  7.1428009532554526e+00  7.1428025510728501e+00  7.1428041037510956e+00  7.1428056125561170e+00  7.1428070787184073e+00  7.1428085034340159e+00  7.1428098878655133e+00  7.1428112331429174e+00  7.1428125403646083e+00  7.1428138105982084e+00  7.1428150448814414e+00  7.1428162442229635e+00  7.1428174096031691e+00  7.1428185419749903e+00  7.1428196422646524e+00  7.1428207113724325e+00  7.1428217501733666e+00  7.1428227595179639e+00  7.1428237402328882e+00  7.1428246931216250e+00  7.1428256189651211e+00  7.1428265185224236e+00  7.1428273925312791e+00  7.1428282417087443e+00  7.1428290667517453e+00  7.1428298683376470e+00  7.1428306471248035e+00  7.1428314037530791e+00  7.1428321388443763e+00  7.1428328530031191e+00  7.1428335468167576e+00  7.1428342208562352e+00  7.1428348756764413e+00  7.1428355118166733e+00  7.1428361298010641e+00  7.1428367301390026e+00  7.1428373133255487e+00  7.1428378798418324e+00  7.1428384301554422e+00  7.1428389647208022e+00  7.1428394839795368e+00  7.1428399883608353e+00  7.1428404782817880e+00  7.1428409541477311e+00  7.1428414163525744e+00  7.1428418652791086e+00  7.1428423012993338e+00  7.1428427247747424e+00  7.1428431360566256e+00  7.1428435354863415e+00  7.1428439233956098e+00  7.1428443001067619e+00  7.1428446659330191e+00  7.1428450211787338e+00  7.1428453661396407e+00  7.1428457011030959e+00  7.1428460263483036e+00  7.1428463421465569e+00  7.1428466487614388e+00  7.1428469464490476e+00  7.1428472354582064e+00  7.1428475160306499e+00  7.1428477884012391e+00  7.1428480527981311e+00  7.1428483094429822e+00  7.1428485585511172e+00  7.1428488003317057e+00  7.1428490349879308e+00  7.1428492627171574e+00  7.1428494837110872e+00  7.1428496981559126e+00  7.1428499062324722e+00  7.1428501081163915e+00  7.1428503039782312e+00  7.1428504939836222e+00  7.1428506782933923e+00  7.1428508570637046e+00  7.1428510304461872e+00  7.1428511985880414e+00  7.1428513616321698e+00  7.1428515197172917e+00  7.1428516729780505e+00  7.1428518215451255e+00  7.1428519655453364e+00  7.1428521051017402e+00  7.1428522403337347e+00  7.1428523713571552e+00  7.1428524982843609e+00  7.1428526212243337e+00  7.1428527402827617e+00  7.1428528555621176e+00  7.1428529671617467e+00  7.1428530751779462e+00  7.1428531797040353e+00  7.1428532808304430e+00  7.1428533786447614e+00  7.1428534732318267e+00  7.1428535646737892e+00  7.1428536530501692e+00  7.1428537384379212e+00  7.1428538209114993e+00  7.1428539005429137e+00  7.1428539774017885e+00  7.1428540515554095e+00  7.1428541230687816e+00  7.1428541920046866e+00  7.1428542584237160e+00  7.1428543223843324e+00  7.1428543839429102e+00  7.1428544431537766e+00  7.1428545000692543e+00  7.1428545547397073e+00  7.1428546072135708e+00  7.1428546575373959e+00  7.1428547057558855e+00  7.1428547519119201e+00  7.1428547960465991e+00  7.1428548381992689e+00  7.1428548784075510e+00  7.1428549167073765e+00  7.1428549531330043e+00  7.1428549877170591e+00  7.1428550204905434e+00  7.1428550514828704e+00  7.1428550807218762e+00  7.1428551082338565e+00  7.1428551340435664e+00  7.1428551581742594e+00  7.1428551806476852e+00  7.1428552014841227e+00  7.1428552207023825e+00  7.1428552383198314e+00  7.1428552543523951e+00  7.1428552688145777e+00  7.1428552817194717e+00  7.1428552930787585e+00  7.1428553029027331e+00  7.1428553112002966e+00  7.1428553179789738e+00  7.1428553232449108e+00  7.1428553270028869e+00  7.1428553292563084e+00  7.1428553300072224e+00  7.1428553292563084e+00  7.1428553270028843e+00  7.1428553232449099e+00  7.1428553179789711e+00  7.1428553112002939e+00  7.1428553029027322e+00  7.1428552930787585e+00  7.1428552817194726e+00  7.1428552688145812e+00  7.1428552543523987e+00  7.1428552383198349e+00  7.1428552207023861e+00  7.1428552014841244e+00  7.1428551806476870e+00  7.1428551581742612e+00  7.1428551340435700e+00  7.1428551082338565e+00  7.1428550807218771e+00  7.1428550514828713e+00  7.1428550204905452e+00  7.1428549877170600e+00  7.1428549531330034e+00  7.1428549167073738e+00  7.1428548784075492e+00  7.1428548381992663e+00  7.1428547960465956e+00  7.1428547519119165e+00  7.1428547057558820e+00  7.1428546575373959e+00  7.1428546072135699e+00  7.1428545547397055e+00  7.1428545000692534e+00  7.1428544431537766e+00  7.1428543839429102e+00  7.1428543223843315e+00  7.1428542584237142e+00  7.1428541920046857e+00  7.1428541230687825e+00  7.1428540515554086e+00  7.1428539774017885e+00  7.1428539005429146e+00  7.1428538209115002e+00  7.1428537384379203e+00  7.1428536530501683e+00  7.1428535646737883e+00  7.1428534732318276e+00  7.1428533786447623e+00  7.1428532808304439e+00  7.1428531797040389e+00  7.1428530751779498e+00  7.1428529671617520e+00  7.1428528555621229e+00  7.1428527402827671e+00  7.1428526212243364e+00  7.1428524982843626e+00  7.1428523713571561e+00  7.1428522403337364e+00  7.1428521051017428e+00  7.1428519655453391e+00  7.1428518215451273e+00  7.1428516729780487e+00  7.1428515197172899e+00  7.1428513616321663e+00  7.1428511985880379e+00  7.1428510304461845e+00  7.1428508570637037e+00  7.1428506782933896e+00  7.1428504939836213e+00  7.1428503039782312e+00  7.1428501081163924e+00  7.1428499062324722e+00  7.1428496981559118e+00  7.1428494837110845e+00  7.1428492627171538e+00  7.1428490349879272e+00  7.1428488003316994e+00  7.1428485585511092e+00  7.1428483094429751e+00  7.1428480527981248e+00  7.1428477884012356e+00  7.1428475160306490e+00  7.1428472354582047e+00  7.1428469464490467e+00  7.1428466487614370e+00  7.1428463421465578e+00  7.1428460263483053e+00  7.1428457011030968e+00  7.1428453661396398e+00  7.1428450211787311e+00  7.1428446659330165e+00  7.1428443001067601e+00  7.1428439233956063e+00  7.1428435354863407e+00  7.1428431360566238e+00  7.1428427247747432e+00  7.1428423012993347e+00  7.1428418652791086e+00  7.1428414163525709e+00  7.1428409541477276e+00  7.1428404782817836e+00  7.1428399883608309e+00  7.1428394839795324e+00  7.1428389647207995e+00  7.1428384301554422e+00  7.1428378798418333e+00  7.1428373133255505e+00  7.1428367301390061e+00  7.1428361298010676e+00  7.1428355118166760e+00  7.1428348756764422e+00  7.1428342208562370e+00  7.1428335468167585e+00  7.1428328530031191e+00  7.1428321388443763e+00  7.1428314037530800e+00  7.1428306471248044e+00  7.1428298683376479e+00  7.1428290667517453e+00  7.1428282417087443e+00  7.1428273925312800e+00  7.1428265185224245e+00  7.1428256189651202e+00  7.1428246931216250e+00  7.1428237402328909e+00  7.1428227595179647e+00  7.1428217501733666e+00  7.1428207113724307e+00  7.1428196422646488e+00  7.1428185419749841e+00  7.1428174096031629e+00  7.1428162442229581e+00  7.1428150448814369e+00  7.1428138105982031e+00  7.1428125403646021e+00  7.1428112331429103e+00  7.1428098878655089e+00  7.1428085034340123e+00  7.1428070787184028e+00  7.1428056125561108e+00  7.1428041037510885e+00  7.1428025510728421e+00  7.1428009532554473e+00  7.1427993089965343e+00  7.1427976169562406e+00  7.1427958757561418e+00  7.1427940839781341e+00  7.1427922401633088e+00  7.1427903428107742e+00  7.1427883903764497e+00  7.1427863812718373e+00  7.1427843138627365e+00  7.1427821864679428e+00  7.1427799973578958e+00  7.1427777447532899e+00  7.1427754268236541e+00  7.1427730416858788e+00  7.1427705874027110e+00  7.1427680619812008e+00  7.1427654633711040e+00  7.1427627894632391e+00  7.1427600380877969e+00  7.1427572070126022e+00  7.1427542939413255e+00  7.1427512965116504e+00  7.1427482122933679e+00  7.1427450387864466e+00  7.1427417734190142e+00  7.1427384135453096e+00  7.1427349564435554e+00  7.1427313993137922e+00  7.1427277392756254e+00  7.1427239733659231e+00  7.1427200985364365e+00  7.1427161116513718e+00  7.1427120094848755e+00  7.1427077887184440e+00  7.1427034459382810e+00  7.1426989776325600e+00  7.1426943801886065e+00  7.1426896498900136e+00  7.1426847829136664e+00  7.1426797753266804e+00  7.1426746230832556e+00  7.1426693220214377e+00  7.1426638678597865e+00  7.1426582561939549e+00  7.1426524824931557e+00  7.1426465420965384e+00  7.1426404302094575e+00  7.1426341418996415e+00  7.1426276720932398e+00  7.1426210155707626e+00  7.1426141669628986e+00  7.1426071207462281e+00  7.1425998712387946e+00  7.1425924125955529e+00  7.1425847388036976e+00  7.1425768436778458e+00  7.1425687208550830e+00  7.1425603637898734e+00  7.1425517657488129e+00  7.1425429198052459e+00  7.1425338188337060e+00  7.1425244555042156e+00  7.1425148222764232e+00  7.1425049113935470e+00  7.1424947148761770e+00  7.1424842245158660e+00  7.1424734318685648e+00  7.1424623282478521e+00  7.1424509047179656e+00  7.1424391520866548e+00  7.1424270608977949e+00  7.1424146214238231e+00  7.1424018236579148e+00  7.1423886573059816e+00  7.1423751117784020e+00  7.1423611761815264e+00  7.1423468393089422e+00  7.1423320896324753e+00  7.1423169152929331e+00  7.1423013040905925e+00  7.1422852434753956e+00  7.1422687205368813e+00  7.1422517219938033e+00  7.1422342341834604e+00  7.1422162430507283e+00  7.1421977341367429e+00  7.1421786925672857e+00  7.1421591030408251e+00  7.1421389498161982e+00  7.1421182166999504e+00  7.1420968870332979e+00  7.1420749436787174e+00  7.1420523690061426e+00  7.1420291448787667e+00  7.1420052526384312e+00  7.1419806730905604e+00  7.1419553864887213e+00  7.1419293725186659e+00  7.1419026102819574e+00  7.1418750782790887e+00  7.1418467543921311e+00  7.1418176158668656e+00  7.1417876392943915e+00  7.1417568005921996e+00  7.1417250749847110e+00  7.1416924369832122e+00  7.1416588603652329e+00  7.1416243181533119e+00  7.1415887825931357e+00  7.1415522251310461e+00  7.1415146163908902e+00  7.1414759261501688e+00  7.1414361233155246e+00  7.1413951758974719e+00  7.1413530509844190e+00  7.1413097147158906e+00  7.1412651322550129e+00  7.1412192677601238e+00  7.1411720843556026e+00  7.1411235441018226e+00  7.1410736079642065e+00  7.1410222357813842e+00  7.1409693862324035e+00  7.1409150168029694e+00  7.1408590837506969e+00  7.1408015420693198e+00  7.1407423454518604e+00  7.1406814462526835e+00  7.1406187954484395e+00  7.1405543425978575e+00  7.1404880358003178e+00  7.1404198216532189e+00  7.1403496452080573e+00  7.1402774499252208e+00  7.1402031776274075e+00  7.1401267684516831e+00  7.1400481608000783e+00  7.1399672912887384e+00  7.1398840946955362e+00  7.1397985039061140e+00  7.1397104498583204e+00  7.1396198614849746e+00  7.1395266656549179e+00  7.1394307871122793e+00  7.1393321484139305e+00  7.1392306698650492e+00  7.1391262694527517e+00  7.1390188627776991e+00  7.1389083629836732e+00  7.1387946806849856e+00  7.1386777238917283e+00  7.1385573979327317e+00  7.1384336053761928e+00  7.1383062459478976e+00  7.1381752164469647e+00  7.1380404106590136e+00  7.1379017192666891e+00  7.1377590297574720e+00  7.1376122263286632e+00  7.1374611897894535e+00  7.1373057974600274e+00  7.1371459230675560e+00  7.1369814366389903e+00  7.1368122043906013e+00  7.1366380886140695e+00  7.1364589475591353e+00  7.1362746353125717e+00  7.1360850016734636e+00  7.1358898920246148e+00  7.1356891471999973e+00  7.1354826033480769e+00  7.1352700917909209e+00  7.1350514388789170e+00  7.1348264658409892e+00  7.1345949886301554e+00  7.1343568177642629e+00  7.1341117581617697e+00  7.1338596089723998e+00  7.1336001634024857e+00  7.1333332085348644e+00  7.1330585251431291e+00  7.1327758875000278e+00  7.1324850631798862e+00  7.1321858128547753e+00  7.1318778900842812e+00  7.1315610410986423e+00  7.1312350045750