<?xml version="1.0"?>
<VTKFile type="UnstructuredGrid"  version="0.1"  >
<UnstructuredGrid>
<Piece  NumberOfPoints="1001" NumberOfCells="1000">
<Points>
<DataArray  type="Float64"  NumberOfComponents="3"  format="ascii">0 0 0  0.001 0 0  0.002 0 0  0.003 0 0  0.004 0 0  0.005 0 0  0.006 0 0  0.007 0 0  0.008 0 0  0.008999999999999999 0 0  0.01 0 0  0.011 0 0  0.012 0 0  0.013 0 0  0.014 0 0  0.015 0 0  0.016 0 0  0.017 0 0  0.018 0 0  0.019 0 0  0.02 0 0  0.021 0 0  0.022 0 0  0.023 0 0  0.024 0 0  0.025 0 0  0.026 0 0  0.027 0 0  0.028 0 0  0.029 0 0  0.03 0 0  0.031 0 0  0.032 0 0  0.033 0 0  0.034 0 0  0.035 0 0  0.036 0 0  0.037 0 0  0.038 0 0  0.039 0 0  0.04 0 0  0.041 0 0  0.042 0 0  0.043 0 0  0.044 0 0  0.045 0 0  0.046 0 0  0.047 0 0  0.048 0 0  0.049 0 0  0.05 0 0  0.051 0 0  0.052 0 0  0.053 0 0  0.054 0 0  0.055 0 0  0.056 0 0  0.057 0 0  0.058 0 0  0.059 0 0  0.06 0 0  0.061 0 0  0.062 0 0  0.063 0 0  0.064 0 0  0.065 0 0  0.066 0 0  0.067 0 0  0.068 0 0  0.06900000000000001 0 0  0.07000000000000001 0 0  0.07099999999999999 0 0  0.07199999999999999 0 0  0.073 0 0  0.074 0 0  0.075 0 0  0.076 0 0  0.077 0 0  0.078 0 0  0.079 0 0  0.08 0 0  0.081 0 0  0.082 0 0  0.083 0 0  0.08400000000000001 0 0  0.08500000000000001 0 0  0.08599999999999999 0 0  0.08699999999999999 0 0  0.08799999999999999 0 0  0.089 0 0  0.09 0 0  0.091 0 0  0.092 0 0  0.093 0 0  0.094 0 0  0.095 0 0  0.096 0 0  0.097 0 0  0.098 0 0  0.099 0 0  0.1 0 0  0.101 0 0  0.102 0 0  0.103 0 0  0.104 0 0  0.105 0 0  0.106 0 0  0.107 0 0  0.108 0 0  0.109 0 0  0.11 0 0  0.111 0 0  0.112 0 0  0.113 0 0  0.114 0 0  0.115 0 0  0.116 0 0  0.117 0 0  0.118 0 0  0.119 0 0  0.12 0 0  0.121 0 0  0.122 0 0  0.123 0 0  0.124 0 0  0.125 0 0  0.126 0 0  0.127 0 0  0.128 0 0  0.129 0 0  0.13 0 0  0.131 0 0  0.132 0 0  0.133 0 0  0.134 0 0  0.135 0 0  0.136 0 0  0.137 0 0  0.138 0 0  0.139 0 0  0.14 0 0  0.141 0 0  0.142 0 0  0.143 0 0  0.144 0 0  0.145 0 0  0.146 0 0  0.147 0 0  0.148 0 0  0.149 0 0  0.15 0 0  0.151 0 0  0.152 0 0  0.153 0 0  0.154 0 0  0.155 0 0  0.156 0 0  0.157 0 0  0.158 0 0  0.159 0 0  0.16 0 0  0.161 0 0  0.162 0 0  0.163 0 0  0.164 0 0  0.165 0 0  0.166 0 0  0.167 0 0  0.168 0 0  0.169 0 0  0.17 0 0  0.171 0 0  0.172 0 0  0.173 0 0  0.174 0 0  0.175 0 0  0.176 0 0  0.177 0 0  0.178 0 0  0.179 0 0  0.18 0 0  0.181 0 0  0.182 0 0  0.183 0 0  0.184 0 0  0.185 0 0  0.186 0 0  0.187 0 0  0.188 0 0  0.189 0 0  0.19 0 0  0.191 0 0  0.192 0 0  0.193 0 0  0.194 0 0  0.195 0 0  0.196 0 0  0.197 0 0  0.198 0 0  0.199 0 0  0.2 0 0  0.201 0 0  0.202 0 0  0.203 0 0  0.204 0 0  0.205 0 0  0.206 0 0  0.207 0 0  0.208 0 0  0.209 0 0  0.21 0 0  0.211 0 0  0.212 0 0  0.213 0 0  0.214 0 0  0.215 0 0  0.216 0 0  0.217 0 0  0.218 0 0  0.219 0 0  0.22 0 0  0.221 0 0  0.222 0 0  0.223 0 0  0.224 0 0  0.225 0 0  0.226 0 0  0.227 0 0  0.228 0 0  0.229 0 0  0.23 0 0  0.231 0 0  0.232 0 0  0.233 0 0  0.234 0 0  0.235 0 0  0.236 0 0  0.237 0 0  0.238 0 0  0.239 0 0  0.24 0 0  0.241 0 0  0.242 0 0  0.243 0 0  0.244 0 0  0.245 0 0  0.246 0 0  0.247 0 0  0.248 0 0  0.249 0 0  0.25 0 0  0.251 0 0  0.252 0 0  0.253 0 0  0.254 0 0  0.255 0 0  0.256 0 0  0.257 0 0  0.258 0 0  0.259 0 0  0.26 0 0  0.261 0 0  0.262 0 0  0.263 0 0  0.264 0 0  0.265 0 0  0.266 0 0  0.267 0 0  0.268 0 0  0.269 0 0  0.27 0 0  0.271 0 0  0.272 0 0  0.273 0 0  0.274 0 0  0.275 0 0  0.276 0 0  0.277 0 0  0.278 0 0  0.279 0 0  0.28 0 0  0.281 0 0  0.282 0 0  0.283 0 0  0.284 0 0  0.285 0 0  0.286 0 0  0.287 0 0  0.288 0 0  0.289 0 0  0.29 0 0  0.291 0 0  0.292 0 0  0.293 0 0  0.294 0 0  0.295 0 0  0.296 0 0  0.297 0 0  0.298 0 0  0.299 0 0  0.3 0 0  0.301 0 0  0.302 0 0  0.303 0 0  0.304 0 0  0.305 0 0  0.306 0 0  0.307 0 0  0.308 0 0  0.309 0 0  0.31 0 0  0.311 0 0  0.312 0 0  0.313 0 0  0.314 0 0  0.315 0 0  0.316 0 0  0.317 0 0  0.318 0 0  0.319 0 0  0.32 0 0  0.321 0 0  0.322 0 0  0.323 0 0  0.324 0 0  0.325 0 0  0.326 0 0  0.327 0 0  0.328 0 0  0.329 0 0  0.33 0 0  0.331 0 0  0.332 0 0  0.333 0 0  0.334 0 0  0.335 0 0  0.336 0 0  0.337 0 0  0.338 0 0  0.339 0 0  0.34 0 0  0.341 0 0  0.342 0 0  0.343 0 0  0.344 0 0  0.345 0 0  0.346 0 0  0.347 0 0  0.348 0 0  0.349 0 0  0.35 0 0  0.351 0 0  0.352 0 0  0.353 0 0  0.354 0 0  0.355 0 0  0.356 0 0  0.357 0 0  0.358 0 0  0.359 0 0  0.36 0 0  0.361 0 0  0.362 0 0  0.363 0 0  0.364 0 0  0.365 0 0  0.366 0 0  0.367 0 0  0.368 0 0  0.369 0 0  0.37 0 0  0.371 0 0  0.372 0 0  0.373 0 0  0.374 0 0  0.375 0 0  0.376 0 0  0.377 0 0  0.378 0 0  0.379 0 0  0.38 0 0  0.381 0 0  0.382 0 0  0.383 0 0  0.384 0 0  0.385 0 0  0.386 0 0  0.387 0 0  0.388 0 0  0.389 0 0  0.39 0 0  0.391 0 0  0.392 0 0  0.393 0 0  0.394 0 0  0.395 0 0  0.396 0 0  0.397 0 0  0.398 0 0  0.399 0 0  0.4 0 0  0.401 0 0  0.402 0 0  0.403 0 0  0.404 0 0  0.405 0 0  0.406 0 0  0.407 0 0  0.408 0 0  0.409 0 0  0.41 0 0  0.411 0 0  0.412 0 0  0.413 0 0  0.414 0 0  0.415 0 0  0.416 0 0  0.417 0 0  0.418 0 0  0.419 0 0  0.42 0 0  0.421 0 0  0.422 0 0  0.423 0 0  0.424 0 0  0.425 0 0  0.426 0 0  0.427 0 0  0.428 0 0  0.429 0 0  0.43 0 0  0.431 0 0  0.432 0 0  0.433 0 0  0.434 0 0  0.435 0 0  0.436 0 0  0.437 0 0  0.438 0 0  0.439 0 0  0.44 0 0  0.441 0 0  0.442 0 0  0.443 0 0  0.444 0 0  0.445 0 0  0.446 0 0  0.447 0 0  0.448 0 0  0.449 0 0  0.45 0 0  0.451 0 0  0.452 0 0  0.453 0 0  0.454 0 0  0.455 0 0  0.456 0 0  0.457 0 0  0.458 0 0  0.459 0 0  0.46 0 0  0.461 0 0  0.462 0 0  0.463 0 0  0.464 0 0  0.465 0 0  0.466 0 0  0.467 0 0  0.468 0 0  0.469 0 0  0.47 0 0  0.471 0 0  0.472 0 0  0.473 0 0  0.474 0 0  0.475 0 0  0.476 0 0  0.477 0 0  0.478 0 0  0.479 0 0  0.48 0 0  0.481 0 0  0.482 0 0  0.483 0 0  0.484 0 0  0.485 0 0  0.486 0 0  0.487 0 0  0.488 0 0  0.489 0 0  0.49 0 0  0.491 0 0  0.492 0 0  0.493 0 0  0.494 0 0  0.495 0 0  0.496 0 0  0.497 0 0  0.498 0 0  0.499 0 0  0.5 0 0  0.501 0 0  0.502 0 0  0.503 0 0  0.504 0 0  0.505 0 0  0.506 0 0  0.507 0 0  0.508 0 0  0.509 0 0  0.51 0 0  0.511 0 0  0.512 0 0  0.513 0 0  0.514 0 0  0.515 0 0  0.516 0 0  0.517 0 0  0.518 0 0  0.519 0 0  0.52 0 0  0.521 0 0  0.522 0 0  0.523 0 0  0.524 0 0  0.525 0 0  0.526 0 0  0.527 0 0  0.528 0 0  0.529 0 0  0.53 0 0  0.531 0 0  0.532 0 0  0.533 0 0  0.534 0 0  0.535 0 0  0.536 0 0  0.537 0 0  0.538 0 0  0.539 0 0  0.54 0 0  0.541 0 0  0.542 0 0  0.543 0 0  0.544 0 0  0.545 0 0  0.546 0 0  0.547 0 0  0.548 0 0  0.549 0 0  0.55 0 0  0.551 0 0  0.552 0 0  0.553 0 0  0.554 0 0  0.555 0 0  0.556 0 0  0.5570000000000001 0 0  0.5580000000000001 0 0  0.5590000000000001 0 0  0.5600000000000001 0 0  0.5610000000000001 0 0  0.5620000000000001 0 0  0.5629999999999999 0 0  0.5639999999999999 0 0  0.5649999999999999 0 0  0.5659999999999999 0 0  0.5669999999999999 0 0  0.5679999999999999 0 0  0.569 0 0  0.57 0 0  0.571 0 0  0.572 0 0  0.573 0 0  0.574 0 0  0.575 0 0  0.576 0 0  0.577 0 0  0.578 0 0  0.579 0 0  0.58 0 0  0.581 0 0  0.582 0 0  0.583 0 0  0.584 0 0  0.585 0 0  0.586 0 0  0.587 0 0  0.588 0 0  0.589 0 0  0.59 0 0  0.591 0 0  0.592 0 0  0.593 0 0  0.594 0 0  0.595 0 0  0.596 0 0  0.597 0 0  0.598 0 0  0.599 0 0  0.6 0 0  0.601 0 0  0.602 0 0  0.603 0 0  0.604 0 0  0.605 0 0  0.606 0 0  0.607 0 0  0.608 0 0  0.609 0 0  0.61 0 0  0.611 0 0  0.612 0 0  0.613 0 0  0.614 0 0  0.615 0 0  0.616 0 0  0.617 0 0  0.618 0 0  0.619 0 0  0.62 0 0  0.621 0 0  0.622 0 0  0.623 0 0  0.624 0 0  0.625 0 0  0.626 0 0  0.627 0 0  0.628 0 0  0.629 0 0  0.63 0 0  0.631 0 0  0.632 0 0  0.633 0 0  0.634 0 0  0.635 0 0  0.636 0 0  0.637 0 0  0.638 0 0  0.639 0 0  0.64 0 0  0.641 0 0  0.642 0 0  0.643 0 0  0.644 0 0  0.645 0 0  0.646 0 0  0.647 0 0  0.648 0 0  0.649 0 0  0.65 0 0  0.651 0 0  0.652 0 0  0.653 0 0  0.654 0 0  0.655 0 0  0.656 0 0  0.657 0 0  0.658 0 0  0.659 0 0  0.66 0 0  0.661 0 0  0.662 0 0  0.663 0 0  0.664 0 0  0.665 0 0  0.666 0 0  0.667 0 0  0.668 0 0  0.669 0 0  0.67 0 0  0.671 0 0  0.672 0 0  0.673 0 0  0.674 0 0  0.675 0 0  0.676 0 0  0.677 0 0  0.678 0 0  0.679 0 0  0.68 0 0  0.681 0 0  0.6820000000000001 0 0  0.6830000000000001 0 0  0.6840000000000001 0 0  0.6850000000000001 0 0  0.6860000000000001 0 0  0.6870000000000001 0 0  0.6879999999999999 0 0  0.6889999999999999 0 0  0.6899999999999999 0 0  0.6909999999999999 0 0  0.6919999999999999 0 0  0.6929999999999999 0 0  0.694 0 0  0.695 0 0  0.696 0 0  0.697 0 0  0.698 0 0  0.699 0 0  0.7 0 0  0.701 0 0  0.702 0 0  0.703 0 0  0.704 0 0  0.705 0 0  0.706 0 0  0.707 0 0  0.708 0 0  0.709 0 0  0.71 0 0  0.711 0 0  0.712 0 0  0.713 0 0  0.714 0 0  0.715 0 0  0.716 0 0  0.717 0 0  0.718 0 0  0.719 0 0  0.72 0 0  0.721 0 0  0.722 0 0  0.723 0 0  0.724 0 0  0.725 0 0  0.726 0 0  0.727 0 0  0.728 0 0  0.729 0 0  0.73 0 0  0.731 0 0  0.732 0 0  0.733 0 0  0.734 0 0  0.735 0 0  0.736 0 0  0.737 0 0  0.738 0 0  0.739 0 0  0.74 0 0  0.741 0 0  0.742 0 0  0.743 0 0  0.744 0 0  0.745 0 0  0.746 0 0  0.747 0 0  0.748 0 0  0.749 0 0  0.75 0 0  0.751 0 0  0.752 0 0  0.753 0 0  0.754 0 0  0.755 0 0  0.756 0 0  0.757 0 0  0.758 0 0  0.759 0 0  0.76 0 0  0.761 0 0  0.762 0 0  0.763 0 0  0.764 0 0  0.765 0 0  0.766 0 0  0.767 0 0  0.768 0 0  0.769 0 0  0.77 0 0  0.771 0 0  0.772 0 0  0.773 0 0  0.774 0 0  0.775 0 0  0.776 0 0  0.777 0 0  0.778 0 0  0.779 0 0  0.78 0 0  0.781 0 0  0.782 0 0  0.783 0 0  0.784 0 0  0.785 0 0  0.786 0 0  0.787 0 0  0.788 0 0  0.789 0 0  0.79 0 0  0.791 0 0  0.792 0 0  0.793 0 0  0.794 0 0  0.795 0 0  0.796 0 0  0.797 0 0  0.798 0 0  0.799 0 0  0.8 0 0  0.801 0 0  0.802 0 0  0.803 0 0  0.804 0 0  0.805 0 0  0.806 0 0  0.8070000000000001 0 0  0.8080000000000001 0 0  0.8090000000000001 0 0  0.8100000000000001 0 0  0.8110000000000001 0 0  0.8120000000000001 0 0  0.8129999999999999 0 0  0.8139999999999999 0 0  0.8149999999999999 0 0  0.8159999999999999 0 0  0.8169999999999999 0 0  0.8179999999999999 0 0  0.819 0 0  0.82 0 0  0.821 0 0  0.822 0 0  0.823 0 0  0.824 0 0  0.825 0 0  0.826 0 0  0.827 0 0  0.828 0 0  0.829 0 0  0.83 0 0  0.831 0 0  0.832 0 0  0.833 0 0  0.834 0 0  0.835 0 0  0.836 0 0  0.837 0 0  0.838 0 0  0.839 0 0  0.84 0 0  0.841 0 0  0
[...]
<PointData  Scalars="f_20-0"> 
<DataArray  type="Float64"  Name="f_20-0"  format="ascii">4.4552809248551544e+00  4.4572176198352453e+00  4.4630101095796890e+00  4.4726060397447895e+00  4.4859195704325066e+00  4.5028334332232927e+00  4.5232016783123834e+00  4.5468529907166051e+00  4.5735944352344919e+00  4.6032154798214604e+00  4.6354921462745740e+00  4.6701911448164051e+00  4.7070738639127061e+00  4.7459001066355313e+00  4.7864314880963557e+00  4.8284344329653459e+00  4.8716827361174788e+00  4.9159596715907536e+00  4.9610596542883520e+00  5.0067894745908710e+00  5.0529691380245056e+00  5.0994323504229468e+00  5.1460266939258741e+00  5.1926135411311982e+00  5.2390677542986008e+00  5.2852772142484818e+00  5.3311422200461953e+00  5.3765747961852455e+00  5.4214979391881792e+00  5.4658448306533174e+00  5.5095580390327630e+00  5.5525887280023438e+00  5.5948958852864017e+00  5.6364455822859982e+00  5.6772102718464703e+00  5.7171681289779279e+00  5.7563024372794835e+00  5.7946010221713777e+00  5.8320557307597616e+00  5.8686619571948775e+00  5.9044182116854795e+00  5.9393257308530352e+00  5.9733881268071523e+00  6.0066110721611130e+00  6.0390020181519697e+00  6.0705699430562001e+00  6.1013251281775611e+00  6.1312789588105359e+00  6.1604437477360632e+00  6.1888325789754068e+00  6.2164591697039597e+00  6.2433377484036043e+00  6.2694829475048790e+00  6.2949097089358057e+00  6.3196332011503822e+00  6.3436687463553536e+00  6.3670317567882240e+00  6.3897376790224802e+00  6.4118019453877633e+00  6.4332399316937554e+00  6.4540669205375085e+00  6.4742980695552781e+00  6.4939483840527217e+00  6.5130326935119065e+00  6.5315656315312003e+00  6.5495616188048720e+00  6.5670348487945347e+00  6.5839992757841745e+00  6.6004686050458661e+00  6.6164562848742277e+00  6.6319755002751215e+00  6.6470391681182228e+00  6.6616599335843434e+00  6.6758501677573410e+00  6.6896219662268699e+00  6.7029871485829684e+00  6.7159572586964789e+00  6.7285435656906172e+00  6.7407570655193165e+00  6.7526084830768536e+00  6.7641082747712797e+00  6.7752666315013332e+00  6.7860934819827499e+00  6.7965984963755357e+00  6.8067910901688711e+00  6.8166804282846591e+00  6.8262754293648973e+00  6.8355847702115060e+00  6.8446168903506663e+00  6.8533799966963853e+00  6.8618820682908650e+00  6.8701308611013836e+00  6.8781339128557129e+00  6.8858985478998278e+00  6.8934318820635676e+00  6.9007408275213296e+00  6.9078320976363932e+00  6.9147122117786965e+00  6.9213875001070750e+00  6.9278641083080172e+00  6.9341480022839708e+00  6.9402449727850382e+00  6.9461606399787872e+00  6.9519004579535144e+00  6.9574697191510024e+00  6.9628735587254269e+00  6.9681169588254885e+00  6.9732047527974794e+00  6.9781416293073120e+00  6.9829321363800130e+00  6.9875806853554421e+00  6.9920915547594644e+00  6.9964688940899613e+00  7.0007167275174087e+00  7.0048389574999330e+00  7.0088393683130308e+00  7.0127216294942674e+00  7.0164892992034709e+00  7.0201458274990625e+00  7.0236945595313438e+00  7.0271387386536510e+00  7.0304815094523407e+00  7.0337259206967921e+00  7.0368749282105298e+00  7.0399313976647715e+00  7.0428981072956942e+00  7.0457777505467760e+00  7.0485729386375970e+00  7.0512862030605907e+00  7.0539199980070988e+00  7.0564767027243409e+00  7.0589586238046742e+00  7.0613679974087233e+00  7.0637069914238735e+00  7.0659777075596022e+00  7.0681821833812011e+00  7.0703223942833624e+00  7.0724002554051530e+00  7.0744176234877898e+00  7.0763762986767782e+00  7.0782780262697731e+00  7.0801244984116609e+00  7.0819173557382307e+00  7.0836581889698556e+00  7.0853485404565388e+00  7.0869899056756624e+00  7.0885837346837928e+00  7.0901314335237782e+00  7.0916343655885132e+00  7.0930938529424843e+00  7.0945111776024179e+00  7.0958875827781895e+00  7.0972242740751295e+00  7.0985224206589344e+00  7.0997831563842064e+00  7.1010075808877859e+00  7.1021967606478871e+00  7.1033517300100915e+00  7.1044734921811736e+00  7.1055630201917888e+00  7.1066212578289267e+00  7.1076491205390866e+00  7.1086474963030550e+00  7.1096172464832001e+00  7.1105592066440950e+00  7.1114741873473122e+00  7.1123629749212274e+00  7.1132263322065494e+00  7.1140649992784102e+00  7.1148796941456904e+00  7.1156711134283466e+00  7.1164399330133792e+00  7.1171868086901924e+00  7.1179123767659167e+00  7.1186172546614017e+00  7.1193020414884192e+00  7.1199673186087624e+00  7.1206136501757307e+00  7.1212415836586338e+00  7.1218516503507940e+00  7.1224443658616314e+00  7.1230202305932968e+00  7.1235797302023656e+00  7.1241233360470826e+00  7.1246515056205855e+00  7.1251646829705919e+00  7.1256632991059519e+00  7.1261477723905404e+00  7.1266185089248006e+00  7.1270759029154513e+00  7.1275203370336264e+00  7.1279521827619163e+00  7.1283718007305730e+00  7.1287795410433024e+00  7.1291757435929419e+00  7.1295607383673421e+00  7.1299348457457867e+00  7.1302983767862296e+00  7.1306516335036632e+00  7.1309949091399139e+00  7.1313284884250621e+00  7.1316526478308742e+00  7.1319676558163891e+00  7.1322737730659895e+00  7.1325712527201350e+00  7.1328603405990521e+00  7.1331412754195371e+00  7.1334142890051657e+00  7.1336796064900350e+00  7.1339374465163381e+00  7.1341880214258664e+00  7.1344315374457041e+00  7.1346681948682873e+00  7.1348981882259652e+00  7.1351217064602812e+00  7.1353389330861257e+00  7.1355500463509127e+00  7.1357552193889413e+00  7.1359546203711117e+00  7.1361484126501020e+00  7.1363367549011940e+00  7.1365198012588431e+00  7.1366977014491590e+00  7.1368706009183898e+00  7.1370386409575834e+00  7.1372019588234732e+00  7.1373606878557929e+00  7.1375149575910495e+00  7.1376648938729153e+00  7.1378106189593424e+00  7.1379522516264489e+00  7.1380899072693520e+00  7.1382236979999973e+00  7.1383537327420639e+00  7.1384801173230787e+00  7.1386029545637921e+00  7.1387223443649157e+00  7.1388383837912830e+00  7.1389511671535431e+00  7.1390607860874278e+00  7.1391673296307170e+00  7.1392708842978729e+00  7.1393715341525654e+00  7.1394693608779969e+00  7.1395644438451997e+00  7.1396568601793176e+00  7.1397466848239617e+00  7.1398339906036643e+00  7.1399188482845153e+00  7.1400013266330378e+00  7.1400814924733336e+00  7.1401594107425588e+00  7.1402351445448113e+00  7.1403087552034128e+00  7.1403803023116978e+00  7.1404498437823287e+00  7.1405174358951475e+00  7.1405831333436875e+00  7.1406469892803077e+00  7.1407090553600163e+00  7.1407693817830529e+00  7.1408280173362106e+00  7.1408850094329903e+00  7.1409404041525795e+00  7.1409942462777174e+00  7.1410465793314613e+00  7.1410974456128971e+00  7.1411468862318257e+00  7.1411949411424516e+00  7.1412416491761084e+00  7.1412870480730168e+00  7.1413311745131871e+00  7.1413740641463743e+00  7.1414157516212144e+00  7.1414562706135207e+00  7.1414956538537488e+00  7.1415339331537222e+00  7.1415711394325259e+00  7.1416073027417326e+00  7.1416424522898607e+00  7.1416766164661531e+00  7.1417098228636711e+00  7.1417420983017399e+00  7.1417734688477479e+00  7.1418039598383185e+00  7.1418335958999046e+00  7.1418624009687512e+00  7.1418903983103617e+00  7.1419176105383348e+00  7.1419440596327179e+00  7.1419697669578195e+00  7.1419947532795236e+00  7.1420190387821014e+00  7.1420426430845687e+00  7.1420655852565567e+00  7.1420878838337467e+00  7.1421095568328594e+00  7.1421306217662384e+00  7.1421510956559917e+00  7.1421709950477634e+00  7.1421903360240986e+00  7.1422091342174321e+00  7.1422274048227203e+00  7.1422451626097008e+00  7.1422624219348210e+00  7.1422791967528276e+00  7.1422955006280153e+00  7.1423113467451804e+00  7.1423267479202508e+00  7.1423417166106189e+00  7.1423562649251835e+00  7.1423704046341152e+00  7.1423841471783396e+00  7.1423975036787564e+00  7.1424104849452030e+00  7.1424231014851545e+00  7.1424353635121971e+00  7.1424472809542427e+00  7.1424588634615329e+00  7.1424701204144005e+00  7.1424810609308231e+00  7.1424916938737670e+00  7.1425020278583187e+00  7.1425120712586123e+00  7.1425218322145776e+00  7.1425313186384791e+00  7.1425405382212936e+00  7.1425494984388846e+00  7.1425582065580286e+00  7.1425666696422505e+00  7.1425748945575140e+00  7.1425828879777375e+00  7.1425906563901620e+00  7.1425982061005744e+00  7.1426055432383722e+00  7.1426126737614917e+00  7.1426196034612062e+00  7.1426263379667772e+00  7.1426328827499814e+00  7.1426392431295183e+00  7.1426454242752726e+00  7.1426514312124851e+00  7.1426572688257863e+00  7.1426629418631258e+00  7.1426684549395913e+00  7.1426738125411209e+00  7.1426790190281046e+00  7.1426840786388981e+00  7.1426889954932280e+00  7.1426937735955054e+00  7.1426984168380452e+00  7.1427029290041997e+00  7.1427073137713952e+00  7.1427115747141050e+00  7.1427157153067053e+00  7.1427197389262851e+00  7.1427236488553572e+00  7.1427274482844991e+00  7.1427311403149218e+00  7.1427347279609661e+00  7.1427382141525273e+00  7.1427416017374092e+00  7.1427448934836297e+00  7.1427480920816331e+00  7.1427512001464653e+00  7.1427542202198779e+00  7.1427571547723758e+00  7.1427600062052097e+00  7.1427627768522930e+00  7.1427654689821081e+00  7.1427680847995134e+00  7.1427706264475335e+00  7.1427730960090763e+00  7.1427754955086167e+00  7.1427778269138260e+00  7.1427800921371665e+00  7.1427822930374187e+00  7.1427844314211928e+00  7.1427865090443818e+00  7.1427885276135807e+00  7.1427904887874512e+00  7.1427923941780813e+00  7.1427942453522668e+00  7.1427960438327878e+00  7.1427977910996328e+00  7.1427994885911987e+00  7.1428011377054474e+00  7.1428027398010352e+00  7.1428042961984177e+00  7.1428058081809036e+00  7.1428072769957085e+00  7.1428087038549508e+00  7.1428100899366376e+00  7.1428114363856148e+00  7.1428127443144938e+00  7.1428140148045518e+00  7.1428152489066061e+00  7.1428164476418683e+00  7.1428176120027631e+00  7.1428187429537431e+00  7.1428198414320594e+00  7.1428209083485239e+00  7.1428219445882517e+00  7.1428229510113717e+00  7.1428239284537298e+00  7.1428248777275609e+00  7.1428257996221456e+00  7.1428266949044632e+00  7.1428275643197949e+00  7.1428284085923481e+00  7.1428292284258221e+00  7.1428300245039980e+00  7.1428307974912837e+00  7.1428315480332536e+00  7.1428322767571748e+00  7.1428329842725153e+00  7.1428336711714371e+00  7.1428343380292780e+00  7.1428349854050213e+00  7.1428356138417399e+00  7.1428362238670529e+00  7.1428368159935323e+00  7.1428373907191398e+00  7.1428379485276174e+00  7.1428384898888817e+00  7.1428390152594101e+00  7.1428395250826080e+00  7.1428400197891673e+00  7.1428404997974155e+00  7.1428409655136536e+00  7.1428414173324892e+00  7.1428418556371502e+00  7.1428422807997993e+00  7.1428426931818310e+00  7.1428430931341680e+00  7.1428434809975405e+00  7.1428438571027648e+00  7.1428442217710053e+00  7.1428445753140339e+00  7.1428449180344913e+00  7.1428452502261139e+00  7.1428455721739841e+00  7.1428458841547524e+00  7.1428461864368540e+00  7.1428464792807329e+00  7.1428467629390511e+00  7.1428470376568791e+00  7.1428473036719069e+00  7.1428475612146158e+00  7.1428478105084743e+00  7.1428480517701152e+00  7.1428482852095057e+00  7.1428485110301017e+00  7.1428487294290299e+00  7.1428489405972257e+00  7.1428491447195901e+00  7.1428493419751389e+00  7.1428495325371335e+00  7.1428497165732256e+00  7.1428498942455789e+00  7.1428500657110092e+00  7.1428502311210860e+00  7.1428503906222680e+00  7.1428505443560120e+00  7.1428506924588735e+00  7.1428508350626201e+00  7.1428509722943279e+00  7.1428511042764837e+00  7.1428512311270760e+00  7.1428513529596849e+00  7.1428514698835572e+00  7.1428515820037166e+00  7.1428516894210148e+00  7.1428517922322214e+00  7.1428518905300917e+00  7.1428519844034390e+00  7.1428520739372026e+00  7.1428521592125067e+00  7.1428522403067234e+00  7.1428523172935261e+00  7.1428523902429477e+00  7.1428524592214346e+00  7.1428525242918885e+00  7.1428525855137179e+00  7.1428526429428771e+00  7.1428526966319170e+00  7.1428527466300062e+00  7.1428527929829873e+00  7.1428528357333896e+00  7.1428528749204787e+00  7.1428529105802712e+00  7.1428529427455674e+00  7.1428529714459694e+00  7.1428529967079131e+00  7.1428530185546775e+00  7.1428530370064029e+00  7.1428530520801052e+00  7.1428530637896932e+00  7.1428530721459706e+00  7.1428530771566514e+00  7.1428530788263682e+00  7.1428530771566541e+00  7.1428530721459706e+00  7.1428530637896905e+00  7.1428530520801035e+00  7.1428530370064012e+00  7.1428530185546766e+00  7.1428529967079131e+00  7.1428529714459668e+00  7.1428529427455629e+00  7.1428529105802685e+00  7.1428528749204778e+00  7.1428528357333887e+00  7.1428527929829855e+00  7.1428527466300054e+00  7.1428526966319179e+00  7.1428526429428807e+00  7.1428525855137188e+00  7.1428525242918877e+00  7.1428524592214337e+00  7.1428523902429477e+00  7.1428523172935270e+00  7.1428522403067243e+00  7.1428521592125067e+00  7.1428520739372017e+00  7.1428519844034364e+00  7.1428518905300864e+00  7.1428517922322170e+00  7.1428516894210112e+00  7.1428515820037166e+00  7.1428514698835572e+00  7.1428513529596831e+00  7.1428512311270751e+00  7.1428511042764837e+00  7.1428509722943270e+00  7.1428508350626174e+00  7.1428506924588699e+00  7.1428505443560057e+00  7.1428503906222618e+00  7.1428502311210798e+00  7.1428500657110048e+00  7.1428498942455780e+00  7.1428497165732221e+00  7.1428495325371291e+00  7.1428493419751353e+00  7.1428491447195874e+00  7.1428489405972231e+00  7.1428487294290308e+00  7.1428485110301025e+00  7.1428482852095065e+00  7.1428480517701178e+00  7.1428478105084743e+00  7.1428475612146141e+00  7.1428473036719069e+00  7.1428470376568818e+00  7.1428467629390529e+00  7.1428464792807356e+00  7.1428461864368549e+00  7.1428458841547551e+00  7.1428455721739876e+00  7.1428452502261166e+00  7.1428449180344931e+00  7.1428445753140366e+00  7.1428442217710053e+00  7.1428438571027684e+00  7.1428434809975432e+00  7.1428430931341724e+00  7.1428426931818345e+00  7.1428422807998020e+00  7.1428418556371538e+00  7.1428414173324910e+00  7.1428409655136544e+00  7.1428404997974146e+00  7.1428400197891673e+00  7.1428395250826080e+00  7.1428390152594092e+00  7.1428384898888808e+00  7.1428379485276166e+00  7.1428373907191407e+00  7.1428368159935349e+00  7.1428362238670564e+00  7.1428356138417461e+00  7.1428349854050257e+00  7.1428343380292834e+00  7.1428336711714415e+00  7.1428329842725198e+00  7.1428322767571775e+00  7.1428315480332536e+00  7.1428307974912828e+00  7.1428300245039988e+00  7.1428292284258230e+00  7.1428284085923490e+00  7.1428275643197976e+00  7.1428266949044668e+00  7.1428257996221509e+00  7.1428248777275627e+00  7.1428239284537334e+00  7.1428229510113743e+00  7.1428219445882535e+00  7.1428209083485239e+00  7.1428198414320585e+00  7.1428187429537431e+00  7.1428176120027631e+00  7.1428164476418674e+00  7.1428152489066052e+00  7.1428140148045500e+00  7.1428127443144929e+00  7.1428114363856130e+00  7.1428100899366376e+00  7.1428087038549508e+00  7.1428072769957085e+00  7.1428058081809009e+00  7.1428042961984151e+00  7.1428027398010361e+00  7.1428011377054474e+00  7.1427994885912005e+00  7.1427977910996345e+00  7.1427960438327878e+00  7.1427942453522659e+00  7.1427923941780822e+00  7.1427904887874503e+00  7.1427885276135781e+00  7.1427865090443809e+00  7.1427844314211901e+00  7.1427822930374161e+00  7.1427800921371638e+00  7.1427778269138225e+00  7.1427754955086105e+00  7.1427730960090718e+00  7.1427706264475317e+00  7.1427680847995134e+00  7.1427654689821098e+00  7.1427627768522939e+00  7.1427600062052097e+00  7.1427571547723785e+00  7.1427542202198770e+00  7.1427512001464635e+00  7.1427480920816313e+00  7.1427448934836288e+00  7.1427416017374110e+00  7.1427382141525273e+00  7.1427347279609661e+00  7.1427311403149218e+00  7.1427274482844991e+00  7.1427236488553563e+00  7.1427197389262860e+00  7.1427157153067053e+00  7.1427115747141077e+00  7.1427073137713979e+00  7.1427029290041997e+00  7.1426984168380470e+00  7.1426937735955081e+00  7.1426889954932307e+00  7.1426840786388999e+00  7.1426790190281038e+00  7.1426738125411191e+00  7.1426684549395913e+00  7.1426629418631258e+00  7.1426572688257846e+00  7.1426514312124842e+00  7.1426454242752726e+00  7.1426392431295183e+00  7.1426328827499814e+00  7.1426263379667772e+00  7.1426196034612062e+00  7.1426126737614926e+00  7.1426055432383730e+00  7.1425982061005788e+00  7.1425906563901655e+00  7.1425828879777393e+00  7.1425748945575158e+00  7.1425666696422514e+00  7.1425582065580278e+00  7.1425494984388820e+00  7.1425405382212919e+00  7.1425313186384791e+00  7.1425218322145758e+00  7.1425120712586105e+00  7.1425020278583151e+00  7.1424916938737635e+00  7.1424810609308169e+00  7.1424701204143943e+00  7.1424588634615285e+00  7.1424472809542392e+00  7.1424353635121927e+00  7.1424231014851518e+00  7.1424104849451986e+00  7.1423975036787546e+00  7.1423841471783343e+00  7.1423704046341117e+00  7.1423562649251817e+00  7.1423417166106162e+00  7.1423267479202490e+00  7.1423113467451778e+00  7.1422955006280127e+00  7.1422791967528259e+00  7.1422624219348210e+00  7.1422451626096999e+00  7.1422274048227203e+00  7.1422091342174339e+00  7.1421903360240977e+00  7.1421709950477625e+00  7.1421510956559899e+00  7.1421306217662375e+00  7.1421095568328603e+00  7.1420878838337467e+00  7.1420655852565593e+00  7.1420426430845696e+00  7.1420190387821005e+00  7.1419947532795200e+00  7.1419697669578195e+00  7.1419440596327179e+00  7.1419176105383348e+00  7.1418903983103617e+00  7.1418624009687521e+00  7.1418335958999046e+00  7.1418039598383212e+00  7.1417734688477497e+00  7.1417420983017426e+00  7.1417098228636711e+00  7.1416766164661567e+00  7.1416424522898616e+00  7.1416073027417353e+00  7.1415711394325276e+00  7.1415339331537249e+00  7.1414956538537542e+00  7.1414562706135234e+00  7.1414157516212189e+00  7.1413740641463770e+00  7.1413311745131915e+00  7.1412870480730204e+00  7.1412416491761084e+00  7.1411949411424542e+00  7.1411468862318275e+00  7.1410974456128971e+00  7.1410465793314648e+00  7.1409942462777218e+00  7.1409404041525830e+00  7.1408850094329921e+00  7.1408280173362098e+00  7.1407693817830529e+00  7.1407090553600163e+00  7.1406469892803077e+00  7.1405831333436875e+00  7.1405174358951431e+00  7.1404498437823261e+00  7.1403803023116970e+00  7.1403087552034101e+00  7.1402351445448105e+00  7.1401594107425579e+00  7.1400814924733336e+00  7.1400013266330395e+00  7.1399188482845171e+00  7.1398339906036661e+00  7.1397466848239644e+00  7.1396568601793202e+00  7.1395644438451997e+00  7.1394693608779978e+00  7.1393715341525681e+00  7.1392708842978747e+00  7.1391673296307161e+00  7.1390607860874304e+00  7.1389511671535431e+00  7.1388383837912839e+00  7.1387223443649184e+00  7.1386029545637930e+00  7.1384801173230770e+00  7.1383537327420612e+00  7.1382236979999929e+00  7.1380899072693493e+00  7.1379522516264462e+00  7.1378106189593407e+00  7.1376648938729153e+00  7.1375149575910495e+00  7.1373606878557929e+00  7.1372019588234732e+00  7.1370386409575834e+00  7.1368706009183915e+00  7.1366977014491599e+00  7.1365198012588458e+00  7.1363367549011985e+00  7.1361484126501082e+00  7.1359546203711171e+00  7.1357552193889457e+00  7.1355500463509163e+00  7.1353389330861292e+00  7.1351217064602812e+00  7.1348981882259643e+00  7.1346681948682864e+00  7.1344315374457032e+00  7.1341880214258664e+00  7.1339374465163399e+00  7.1336796064900376e+00  7.1334142890051648e+00  7.1331412754195380e+00  7.1328603405990512e+00  7.1325712527201368e+00  7.1322737730659913e+00  7.1319676558163900e+00  7.1316526478308733e+00  7.1313284884250612e+00  7.1309949091399121e+00  7.1306516335036614e+00  7.1302983767862251e+00  7.1299348457457858e+00  7.1295607383673429e+00  7.1291757435929402e+00  7.1287795410433015e+00  7.1283718007305712e+00  7.1279521827619190e+00  7.1275203370336255e+00  7.1270759029154487e+00  7.1266185089247989e+00  7.1261477723905386e+00  7.1256632991059519e+00  7.1251646829705901e+00  7.1246515056205846e+00  7.1241233360470826e+00  7.1235797302023647e+00  7.1230202305932977e+00  7.1224443658616314e+00  7.1218516503507958e+00  7.1212415836586329e+00  7.1206136501757307e+00  7.1199673186087624e+00  7.1193020414884192e+00  7.1186172546614017e+00  7.1179123767659194e+00  7.1171868086901915e+00  7.1164399330133