<?xml version="1.0"?>
<VTKFile type="UnstructuredGrid"  version="0.1"  >
<UnstructuredGrid>
<Piece  NumberOfPoints="1001" NumberOfCells="1000">
<Points>
<DataArray  type="Float64"  NumberOfComponents="3"  format="ascii">0 0 0  0.001 0 0  0.002 0 0  0.003 0 0  0.004 0 0  0.005 0 0  0.006 0 0  0.007 0 0  0.008 0 0  0.008999999999999999 0 0  0.01 0 0  0.011 0 0  0.012 0 0  0.013 0 0  0.014 0 0  0.015 0 0  0.016 0 0  0.017 0 0  0.018 0 0  0.019 0 0  0.02 0 0  0.021 0 0  0.022 0 0  0.023 0 0  0.024 0 0  0.025 0 0  0.026 0 0  0.027 0 0  0.028 0 0  0.029 0 0  0.03 0 0  0.031 0 0  0.032 0 0  0.033 0 0  0.034 0 0  0.035 0 0  0.036 0 0  0.037 0 0  0.038 0 0  0.039 0 0  0.04 0 0  0.041 0 0  0.042 0 0  0.043 0 0  0.044 0 0  0.045 0 0  0.046 0 0  0.047 0 0  0.048 0 0  0.049 0 0  0.05 0 0  0.051 0 0  0.052 0 0  0.053 0 0  0.054 0 0  0.055 0 0  0.056 0 0  0.057 0 0  0.058 0 0  0.059 0 0  0.06 0 0  0.061 0 0  0.062 0 0  0.063 0 0  0.064 0 0  0.065 0 0  0.066 0 0  0.067 0 0  0.068 0 0  0.06900000000000001 0 0  0.07000000000000001 0 0  0.07099999999999999 0 0  0.07199999999999999 0 0  0.073 0 0  0.074 0 0  0.075 0 0  0.076 0 0  0.077 0 0  0.078 0 0  0.079 0 0  0.08 0 0  0.081 0 0  0.082 0 0  0.083 0 0  0.08400000000000001 0 0  0.08500000000000001 0 0  0.08599999999999999 0 0  0.08699999999999999 0 0  0.08799999999999999 0 0  0.089 0 0  0.09 0 0  0.091 0 0  0.092 0 0  0.093 0 0  0.094 0 0  0.095 0 0  0.096 0 0  0.097 0 0  0.098 0 0  0.099 0 0  0.1 0 0  0.101 0 0  0.102 0 0  0.103 0 0  0.104 0 0  0.105 0 0  0.106 0 0  0.107 0 0  0.108 0 0  0.109 0 0  0.11 0 0  0.111 0 0  0.112 0 0  0.113 0 0  0.114 0 0  0.115 0 0  0.116 0 0  0.117 0 0  0.118 0 0  0.119 0 0  0.12 0 0  0.121 0 0  0.122 0 0  0.123 0 0  0.124 0 0  0.125 0 0  0.126 0 0  0.127 0 0  0.128 0 0  0.129 0 0  0.13 0 0  0.131 0 0  0.132 0 0  0.133 0 0  0.134 0 0  0.135 0 0  0.136 0 0  0.137 0 0  0.138 0 0  0.139 0 0  0.14 0 0  0.141 0 0  0.142 0 0  0.143 0 0  0.144 0 0  0.145 0 0  0.146 0 0  0.147 0 0  0.148 0 0  0.149 0 0  0.15 0 0  0.151 0 0  0.152 0 0  0.153 0 0  0.154 0 0  0.155 0 0  0.156 0 0  0.157 0 0  0.158 0 0  0.159 0 0  0.16 0 0  0.161 0 0  0.162 0 0  0.163 0 0  0.164 0 0  0.165 0 0  0.166 0 0  0.167 0 0  0.168 0 0  0.169 0 0  0.17 0 0  0.171 0 0  0.172 0 0  0.173 0 0  0.174 0 0  0.175 0 0  0.176 0 0  0.177 0 0  0.178 0 0  0.179 0 0  0.18 0 0  0.181 0 0  0.182 0 0  0.183 0 0  0.184 0 0  0.185 0 0  0.186 0 0  0.187 0 0  0.188 0 0  0.189 0 0  0.19 0 0  0.191 0 0  0.192 0 0  0.193 0 0  0.194 0 0  0.195 0 0  0.196 0 0  0.197 0 0  0.198 0 0  0.199 0 0  0.2 0 0  0.201 0 0  0.202 0 0  0.203 0 0  0.204 0 0  0.205 0 0  0.206 0 0  0.207 0 0  0.208 0 0  0.209 0 0  0.21 0 0  0.211 0 0  0.212 0 0  0.213 0 0  0.214 0 0  0.215 0 0  0.216 0 0  0.217 0 0  0.218 0 0  0.219 0 0  0.22 0 0  0.221 0 0  0.222 0 0  0.223 0 0  0.224 0 0  0.225 0 0  0.226 0 0  0.227 0 0  0.228 0 0  0.229 0 0  0.23 0 0  0.231 0 0  0.232 0 0  0.233 0 0  0.234 0 0  0.235 0 0  0.236 0 0  0.237 0 0  0.238 0 0  0.239 0 0  0.24 0 0  0.241 0 0  0.242 0 0  0.243 0 0  0.244 0 0  0.245 0 0  0.246 0 0  0.247 0 0  0.248 0 0  0.249 0 0  0.25 0 0  0.251 0 0  0.252 0 0  0.253 0 0  0.254 0 0  0.255 0 0  0.256 0 0  0.257 0 0  0.258 0 0  0.259 0 0  0.26 0 0  0.261 0 0  0.262 0 0  0.263 0 0  0.264 0 0  0.265 0 0  0.266 0 0  0.267 0 0  0.268 0 0  0.269 0 0  0.27 0 0  0.271 0 0  0.272 0 0  0.273 0 0  0.274 0 0  0.275 0 0  0.276 0 0  0.277 0 0  0.278 0 0  0.279 0 0  0.28 0 0  0.281 0 0  0.282 0 0  0.283 0 0  0.284 0 0  0.285 0 0  0.286 0 0  0.287 0 0  0.288 0 0  0.289 0 0  0.29 0 0  0.291 0 0  0.292 0 0  0.293 0 0  0.294 0 0  0.295 0 0  0.296 0 0  0.297 0 0  0.298 0 0  0.299 0 0  0.3 0 0  0.301 0 0  0.302 0 0  0.303 0 0  0.304 0 0  0.305 0 0  0.306 0 0  0.307 0 0  0.308 0 0  0.309 0 0  0.31 0 0  0.311 0 0  0.312 0 0  0.313 0 0  0.314 0 0  0.315 0 0  0.316 0 0  0.317 0 0  0.318 0 0  0.319 0 0  0.32 0 0  0.321 0 0  0.322 0 0  0.323 0 0  0.324 0 0  0.325 0 0  0.326 0 0  0.327 0 0  0.328 0 0  0.329 0 0  0.33 0 0  0.331 0 0  0.332 0 0  0.333 0 0  0.334 0 0  0.335 0 0  0.336 0 0  0.337 0 0  0.338 0 0  0.339 0 0  0.34 0 0  0.341 0 0  0.342 0 0  0.343 0 0  0.344 0 0  0.345 0 0  0.346 0 0  0.347 0 0  0.348 0 0  0.349 0 0  0.35 0 0  0.351 0 0  0.352 0 0  0.353 0 0  0.354 0 0  0.355 0 0  0.356 0 0  0.357 0 0  0.358 0 0  0.359 0 0  0.36 0 0  0.361 0 0  0.362 0 0  0.363 0 0  0.364 0 0  0.365 0 0  0.366 0 0  0.367 0 0  0.368 0 0  0.369 0 0  0.37 0 0  0.371 0 0  0.372 0 0  0.373 0 0  0.374 0 0  0.375 0 0  0.376 0 0  0.377 0 0  0.378 0 0  0.379 0 0  0.38 0 0  0.381 0 0  0.382 0 0  0.383 0 0  0.384 0 0  0.385 0 0  0.386 0 0  0.387 0 0  0.388 0 0  0.389 0 0  0.39 0 0  0.391 0 0  0.392 0 0  0.393 0 0  0.394 0 0  0.395 0 0  0.396 0 0  0.397 0 0  0.398 0 0  0.399 0 0  0.4 0 0  0.401 0 0  0.402 0 0  0.403 0 0  0.404 0 0  0.405 0 0  0.406 0 0  0.407 0 0  0.408 0 0  0.409 0 0  0.41 0 0  0.411 0 0  0.412 0 0  0.413 0 0  0.414 0 0  0.415 0 0  0.416 0 0  0.417 0 0  0.418 0 0  0.419 0 0  0.42 0 0  0.421 0 0  0.422 0 0  0.423 0 0  0.424 0 0  0.425 0 0  0.426 0 0  0.427 0 0  0.428 0 0  0.429 0 0  0.43 0 0  0.431 0 0  0.432 0 0  0.433 0 0  0.434 0 0  0.435 0 0  0.436 0 0  0.437 0 0  0.438 0 0  0.439 0 0  0.44 0 0  0.441 0 0  0.442 0 0  0.443 0 0  0.444 0 0  0.445 0 0  0.446 0 0  0.447 0 0  0.448 0 0  0.449 0 0  0.45 0 0  0.451 0 0  0.452 0 0  0.453 0 0  0.454 0 0  0.455 0 0  0.456 0 0  0.457 0 0  0.458 0 0  0.459 0 0  0.46 0 0  0.461 0 0  0.462 0 0  0.463 0 0  0.464 0 0  0.465 0 0  0.466 0 0  0.467 0 0  0.468 0 0  0.469 0 0  0.47 0 0  0.471 0 0  0.472 0 0  0.473 0 0  0.474 0 0  0.475 0 0  0.476 0 0  0.477 0 0  0.478 0 0  0.479 0 0  0.48 0 0  0.481 0 0  0.482 0 0  0.483 0 0  0.484 0 0  0.485 0 0  0.486 0 0  0.487 0 0  0.488 0 0  0.489 0 0  0.49 0 0  0.491 0 0  0.492 0 0  0.493 0 0  0.494 0 0  0.495 0 0  0.496 0 0  0.497 0 0  0.498 0 0  0.499 0 0  0.5 0 0  0.501 0 0  0.502 0 0  0.503 0 0  0.504 0 0  0.505 0 0  0.506 0 0  0.507 0 0  0.508 0 0  0.509 0 0  0.51 0 0  0.511 0 0  0.512 0 0  0.513 0 0  0.514 0 0  0.515 0 0  0.516 0 0  0.517 0 0  0.518 0 0  0.519 0 0  0.52 0 0  0.521 0 0  0.522 0 0  0.523 0 0  0.524 0 0  0.525 0 0  0.526 0 0  0.527 0 0  0.528 0 0  0.529 0 0  0.53 0 0  0.531 0 0  0.532 0 0  0.533 0 0  0.534 0 0  0.535 0 0  0.536 0 0  0.537 0 0  0.538 0 0  0.539 0 0  0.54 0 0  0.541 0 0  0.542 0 0  0.543 0 0  0.544 0 0  0.545 0 0  0.546 0 0  0.547 0 0  0.548 0 0  0.549 0 0  0.55 0 0  0.551 0 0  0.552 0 0  0.553 0 0  0.554 0 0  0.555 0 0  0.556 0 0  0.5570000000000001 0 0  0.5580000000000001 0 0  0.5590000000000001 0 0  0.5600000000000001 0 0  0.5610000000000001 0 0  0.5620000000000001 0 0  0.5629999999999999 0 0  0.5639999999999999 0 0  0.5649999999999999 0 0  0.5659999999999999 0 0  0.5669999999999999 0 0  0.5679999999999999 0 0  0.569 0 0  0.57 0 0  0.571 0 0  0.572 0 0  0.573 0 0  0.574 0 0  0.575 0 0  0.576 0 0  0.577 0 0  0.578 0 0  0.579 0 0  0.58 0 0  0.581 0 0  0.582 0 0  0.583 0 0  0.584 0 0  0.585 0 0  0.586 0 0  0.587 0 0  0.588 0 0  0.589 0 0  0.59 0 0  0.591 0 0  0.592 0 0  0.593 0 0  0.594 0 0  0.595 0 0  0.596 0 0  0.597 0 0  0.598 0 0  0.599 0 0  0.6 0 0  0.601 0 0  0.602 0 0  0.603 0 0  0.604 0 0  0.605 0 0  0.606 0 0  0.607 0 0  0.608 0 0  0.609 0 0  0.61 0 0  0.611 0 0  0.612 0 0  0.613 0 0  0.614 0 0  0.615 0 0  0.616 0 0  0.617 0 0  0.618 0 0  0.619 0 0  0.62 0 0  0.621 0 0  0.622 0 0  0.623 0 0  0.624 0 0  0.625 0 0  0.626 0 0  0.627 0 0  0.628 0 0  0.629 0 0  0.63 0 0  0.631 0 0  0.632 0 0  0.633 0 0  0.634 0 0  0.635 0 0  0.636 0 0  0.637 0 0  0.638 0 0  0.639 0 0  0.64 0 0  0.641 0 0  0.642 0 0  0.643 0 0  0.644 0 0  0.645 0 0  0.646 0 0  0.647 0 0  0.648 0 0  0.649 0 0  0.65 0 0  0.651 0 0  0.652 0 0  0.653 0 0  0.654 0 0  0.655 0 0  0.656 0 0  0.657 0 0  0.658 0 0  0.659 0 0  0.66 0 0  0.661 0 0  0.662 0 0  0.663 0 0  0.664 0 0  0.665 0 0  0.666 0 0  0.667 0 0  0.668 0 0  0.669 0 0  0.67 0 0  0.671 0 0  0.672 0 0  0.673 0 0  0.674 0 0  0.675 0 0  0.676 0 0  0.677 0 0  0.678 0 0  0.679 0 0  0.68 0 0  0.681 0 0  0.6820000000000001 0 0  0.6830000000000001 0 0  0.6840000000000001 0 0  0.6850000000000001 0 0  0.6860000000000001 0 0  0.6870000000000001 0 0  0.6879999999999999 0 0  0.6889999999999999 0 0  0.6899999999999999 0 0  0.6909999999999999 0 0  0.6919999999999999 0 0  0.6929999999999999 0 0  0.694 0 0  0.695 0 0  0.696 0 0  0.697 0 0  0.698 0 0  0.699 0 0  0.7 0 0  0.701 0 0  0.702 0 0  0.703 0 0  0.704 0 0  0.705 0 0  0.706 0 0  0.707 0 0  0.708 0 0  0.709 0 0  0.71 0 0  0.711 0 0  0.712 0 0  0.713 0 0  0.714 0 0  0.715 0 0  0.716 0 0  0.717 0 0  0.718 0 0  0.719 0 0  0.72 0 0  0.721 0 0  0.722 0 0  0.723 0 0  0.724 0 0  0.725 0 0  0.726 0 0  0.727 0 0  0.728 0 0  0.729 0 0  0.73 0 0  0.731 0 0  0.732 0 0  0.733 0 0  0.734 0 0  0.735 0 0  0.736 0 0  0.737 0 0  0.738 0 0  0.739 0 0  0.74 0 0  0.741 0 0  0.742 0 0  0.743 0 0  0.744 0 0  0.745 0 0  0.746 0 0  0.747 0 0  0.748 0 0  0.749 0 0  0.75 0 0  0.751 0 0  0.752 0 0  0.753 0 0  0.754 0 0  0.755 0 0  0.756 0 0  0.757 0 0  0.758 0 0  0.759 0 0  0.76 0 0  0.761 0 0  0.762 0 0  0.763 0 0  0.764 0 0  0.765 0 0  0.766 0 0  0.767 0 0  0.768 0 0  0.769 0 0  0.77 0 0  0.771 0 0  0.772 0 0  0.773 0 0  0.774 0 0  0.775 0 0  0.776 0 0  0.777 0 0  0.778 0 0  0.779 0 0  0.78 0 0  0.781 0 0  0.782 0 0  0.783 0 0  0.784 0 0  0.785 0 0  0.786 0 0  0.787 0 0  0.788 0 0  0.789 0 0  0.79 0 0  0.791 0 0  0.792 0 0  0.793 0 0  0.794 0 0  0.795 0 0  0.796 0 0  0.797 0 0  0.798 0 0  0.799 0 0  0.8 0 0  0.801 0 0  0.802 0 0  0.803 0 0  0.804 0 0  0.805 0 0  0.806 0 0  0.8070000000000001 0 0  0.8080000000000001 0 0  0.8090000000000001 0 0  0.8100000000000001 0 0  0.8110000000000001 0 0  0.8120000000000001 0 0  0.8129999999999999 0 0  0.8139999999999999 0 0  0.8149999999999999 0 0  0.8159999999999999 0 0  0.8169999999999999 0 0  0.8179999999999999 0 0  0.819 0 0  0.82 0 0  0.821 0 0  0.822 0 0  0.823 0 0  0.824 0 0  0.825 0 0  0.826 0 0  0.827 0 0  0.828 0 0  0.829 0 0  0.83 0 0  0.831 0 0  0.832 0 0  0.833 0 0  0.834 0 0  0.835 0 0  0.836 0 0  0.837 0 0  0.838 0 0  0.839 0 0  0.84 0 0  0.841 0 0  0
[...]
<PointData  Scalars="f_20-0"> 
<DataArray  type="Float64"  Name="f_20-0"  format="ascii">2.0000011616723570e+00  2.0000011711334342e+00  2.0000011996599825e+00  2.0000012476839508e+00  2.0000013159319381e+00  2.0000014054353077e+00  2.0000015175445252e+00  2.0000016539479022e+00  2.0000018166949767e+00  2.0000020082248344e+00  2.0000022313997081e+00  2.0000024895442889e+00  2.0000027864912315e+00  2.0000031266334166e+00  2.0000035149836166e+00  2.0000039572422907e+00  2.0000044598743467e+00  2.0000050301957892e+00  2.0000056764713188e+00  2.0000064080240270e+00  2.0000072353585341e+00  2.0000081702989925e+00  2.0000092261436175e+00  2.0000104178375335e+00  2.0000117621659679e+00  2.0000132779700150e+00  2.0000149863874590e+00  2.0000169111214032e+00  2.0000190787397520e+00  2.0000215190089210e+00  2.0000242652655031e+00  2.0000273548300163e+00  2.0000308294672968e+00  2.0000347358985606e+00  2.0000391263707051e+00  2.0000440592889710e+00  2.0000495999197252e+00  2.0000558211708181e+00  2.0000628044577140e+00  2.0000706406644273e+00  2.0000794312092021e+00  2.0000892892258597e+00  2.0001003408728151e+00  2.0001127267829553e+00  2.0001266036688485e+00  2.0001421460991624e+00  2.0001595484636976e+00  2.0001790271461051e+00  2.0002008229251742e+00  2.0002252036275197e+00  2.0002524670566588e+00  2.0002829442257584e+00  2.0003170029238495e+00  2.0003550516479880e+00  2.0003975439368076e+00  2.0004449831440083e+00  2.0004979276937687e+00  2.0005569968636765e+00  2.0006228771447221e+00  2.0006963292320732e+00  2.0007781957048403e+00  2.0008694094578279e+00  2.0009710029533472e+00  2.0010841183665544e+00  2.0012100187035178e+00  2.0013500999771718e+00  2.0015059045326802e+00  2.0016791356202734e+00  2.0018716733205166e+00  2.0020855919339704e+00  2.0023231789545157e+00  2.0025869557529266e+00  2.0028797001046943e+00  2.0032044707034320e+00  2.0035646338083470e+00  2.0039638921810918e+00  2.0044063164735828e+00  2.0048963792339674e+00  2.0054389917024373e+00  2.0060395435718217e+00  2.0067039458893952e+00  2.0074386772756925e+00  2.0082508336327916e+00  2.0091481815079120e+00  2.0101392152675750e+00  2.0112332182221246e+00  2.0124403278192946e+00  2.0137716049975496e+00  2.0152391077540304e+00  2.0168559689367545e+00  2.0186364782147952e+00  2.0205961681119136e+00  2.0227519039068462e+00  2.0251219771053401e+00  2.0277262020732274e+00  2.0305860152844510e+00  2.0337245764812066e+00  2.0371668708635564e+00  2.0409398112216346e+00  2.0450723386939678e+00  2.0495955205801417e+00  2.0545426433556115e+00  2.0599492987325454e+00  2.0658534602864003e+00  2.0722955478282929e+00  2.0793184763553660e+00  2.0869676860647957e+00  2.0952911495844995e+00  2.1043393522706446e+00  2.1141652411678988e+00  2.1248241380455188e+00  2.1363736118365773e+00  2.1488733058472649e+00  2.1623847152984399e+00  2.1769709111429734e+00  2.1926962066991127e+00  2.2096257644772885e+00  2.2278251416742800e+00  2.2473597741731624e+00  2.2682944005158427e+00  2.2906924291865303e+00  2.3146152546196306e+00  2.3401215295638811e+00  2.3672664037145310e+00  2.3961007407658945e+00  2.4266703281203310e+00  2.4590150952892347e+00  2.4931683584072504e+00  2.5291561091303874e+00  2.5669963663980511e+00  2.6066986090327235e+00  2.6482633058920073e+00  2.6916815582834750e+00  2.7369348666593307e+00  2.7839950303283474e+00  2.8328241852021563e+00  2.8833749806090969e+00  2.9355908921582472e+00  2.9894066637202568e+00  3.0447488680007302e+00  3.1015365720818369e+00  3.1596820918283295e+00  3.2190918172811886e+00  3.2796670901348621e+00  3.3413051141057539e+00  3.4038998794020934e+00  3.4673430835170871e+00  3.5315250320824356e+00  3.5963355054177812e+00  3.6616645785691304e+00  3.7274033849250130e+00  3.7934448158235505e+00  3.8596841508224702e+00  3.9260196154215778e+00  3.9923528649469611e+00  4.0585893949904603e+00  4.1246388802264571e+00  4.1904154445950610e+00  4.2558378667526569e+00  4.3208297253632661e+00  4.3853194892589107e+00  4.4492405577602900e+00  4.5125312565481535e+00  4.5751347944388350e+00  4.6369991862712752e+00  4.6980771468824605e+00  4.7583259608558706e+00  4.8177073323928159e+00  4.8761872192961198e+00  4.9337356546831055e+00  4.9903265596716126e+00  5.0459375499172587e+00  5.1005497385290894e+00  5.1541475375588366e+00  5.2067184599492338e+00  5.2582529235414226e+00  5.3087440584809809e+00  5.3581875191267549e+00  5.4065813013560255e+00  5.4539255659723764e+00  5.5002224687577970e+00  5.5454759975666557e+00  5.5896918167343133e+00  5.6328771189659461e+00  5.6750404847797702e+00  5.7161917495017995e+00  5.7563418777448723e+00  5.7955028452516339e+00  5.8336875279380287e+00  5.8709095979393986e+00  5.9071834264343455e+00  5.9425239930012461e+00  5.9769468012474700e+00  6.0104678004414112e+00  6.0431033128715619e+00  6.0748699666542922e+00  6.1057846337123882e+00  6.1358643726490367e+00  6.1651263762465582e+00  6.1935879233252882e+00  6.2212663347053505e+00  6.2481789330223174e+00  6.2743430061567400e+00  6.2997757740469540e+00  6.3244943586643547e+00  6.3485157569403281e+00  6.3718568164440130e+00  6.3945342136200871e+00  6.4165644344056334e+00  6.4379637570548720e+00  6.4587482370099627e+00  6.4789336936653328e+00  6.4985356988818612e+00  6.5175695671158058e+00  6.5360503470356299e+00  6.5539928145077386e+00  6.5714114668397015e+00  6.5883205181766522e+00  6.6047338959534549e+00  6.6206652383116511e+00  6.6361278923963347e+00  6.6511349134539239e+00  6.6656990646572689e+00  6.6798328175896948e+00  6.6935483533244300e+00  6.7068575640404848e+00  6.7197720551203135e+00  6.7323031476786284e+00  6.7444618814755533e+00  6.7562590181707955e+00  6.7677050448789071e+00  6.7788101779887313e+00  6.7895843672131058e+00  6.8000372998375402e+00  6.8101784051391689e+00  6.8200168589495842e+00  6.8295615883374072e+00  6.8388212763884404e+00  6.8478043670632021e+00  6.8565190701133512e+00  6.8649733660402203e+00  6.8731750110801579e+00  6.8811315422027768e+00  6.8888502821095940e+00  6.8963383442216655e+00  6.9036026376460162e+00  6.9106498721116720e+00  6.9174865628670803e+00  6.9241190355315654e+00  6.9305534308943111e+00  6.9367957096551054e+00  6.9428516571017882e+00  6.9487268877199622e+00  6.9544268497311270e+00  6.9599568295559475e+00  6.9653219561998432e+00  6.9705272055585397e+00  6.9755774046416619e+00  6.9804772357127973e+00  6.9852312403448193e+00  6.9898438233895703e+00  6.9943192568612966e+00  6.9986616837334790e+00  7.0028751216489455e+00  7.0069634665433504e+00  7.0109304961823078e+00  7.0147798736126505e+00  7.0185151505284136e+00  7.0221397705522710e+00  7.0256570724333525e+00  7.0290702931623530e+00  7.0323825710050469e+00  7.0355969484553720e+00  7.0387163751092734e+00  7.0417437104606391e+00  7.0446817266206532e+00  7.0475331109619503e+00  7.0503004686890272e+00  7.0529863253363256e+00  7.0555931291955103e+00  7.0581232536734113e+00  7.0605789995821588e+00  7.0629625973630104e+00  7.0652762092454262e+00  7.0675219313428777e+00  7.0697017956869290e+00  7.0718177722010989e+00  7.0738717706160026e+00  7.0758656423272601e+00  7.0778011821976454e+00  7.0796801303049355e+00  7.0815041736368931e+00  7.0832749477348047e+00  7.0849940382869621e+00  7.0866629826734782e+00  7.0882832714637614e+00  7.0898563498679996e+00  7.0913836191439374e+00  7.0928664379602155e+00  7.0943061237175513e+00  7.0957039538289397e+00  7.0970611669600983e+00  7.0983789642313155e+00  7.0996585103818450e+00  7.1009009348979539e+00  7.1021073331057050e+00  7.1032787672295665e+00  7.1044162674178271e+00  7.1055208327358779e+00  7.1065934321283075e+00  7.1076350053507671e+00  7.1086464638725531e+00  7.1096286917507907e+00  7.1105825464770991e+00  7.1115088597976159e+00  7.1124084385071749e+00  7.1132820652184678e+00  7.1141304991069712e+00  7.1149544766323860e+00  7.1157547122373517e+00  7.1165318990241238e+00  7.1172867094099272e+00  7.1180197957616658e+00  7.1187317910106280e+00  7.1194233092478214e+00  7.1200949463005792e+00  7.1207472802909955e+00  7.1213808721768102e+00  7.1219962662752545e+00  7.1225939907704596e+00  7.1231745582048944e+00  7.1237384659553937e+00  7.1242861966942348e+00  7.1248182188357578e+00  7.1253349869689862e+00  7.1258369422767069e+00  7.1263245129414274e+00  7.1267981145386470e+00  7.1272581504178305e+00  7.1277050120715044e+00  7.1281390794928292e+00  7.1285607215220370e+00  7.1289702961820787e+00  7.1293681510038356e+00  7.1297546233412277e+00  7.1301300406765353e+00  7.1304947209162552e+00  7.1308489726777973e+00  7.1311930955672986e+00  7.1315273804488637e+00  7.1318521097054761e+00  7.1321675574918704e+00  7.1324739899796166e+00  7.1327716655946531e+00  7.1330608352475195e+00  7.1333417425565253e+00  7.1336146240640659e+00  7.1338797094463153e+00  7.1341372217165064e+00  7.1343873774219908e+00  7.1346303868352816e+00  7.1348664541392832e+00  7.1350957776068622e+00  7.1353185497749720e+00  7.1355349576134746e+00  7.1357451826888463e+00  7.1359494013229225e+00  7.1361477847468295e+00  7.1363404992502719e+00  7.1365277063263015e+00  7.1367095628117294e+00  7.1368862210232988e+00  7.1370578288897715e+00  7.1372245300800312e+00  7.1373864641273617e+00  7.1375437665499772e+00  7.1376965689679626e+00  7.1378449992167043e+00  7.1379891814569474e+00  7.1381292362815492e+00  7.1382652808190761e+00  7.1383974288343044e+00  7.1385257908257387e+00  7.1386504741202312e+00  7.1387715829648082e+00  7.1388892186157635e+00  7.1390034794251287e+00  7.1391144609245911e+00  7.1392222559069189e+00  7.1393269545050151e+00  7.1394286442686274e+00  7.1395274102388058e+00  7.1396233350201834e+00  7.1397164988511310e+00  7.1398069796718620e+00  7.1398948531905448e+00  7.1399801929474851e+00  7.1400630703774350e+00  7.1401435548700949e+00  7.1402217138288373e+00  7.1402976127277418e+00  7.1403713151669699e+00  7.1404428829265250e+00  7.1405123760184681e+00  7.1405798527376110e+00  7.1406453697107555e+00  7.1407089819445009e+00  7.1407707428716787e+00  7.1408307043964481e+00  7.1408889169380902e+00  7.1409454294735468e+00  7.1410002895787299e+00  7.1410535434686544e+00  7.1411052360364087e+00  7.1411554108910149e+00  7.1412041103941988e+00  7.1412513756961076e+00  7.1412972467700113e+00  7.1413417624459896e+00  7.1413849604436850e+00  7.1414268774040863e+00  7.1414675489204269e+00  7.1415070095681799e+00  7.1415452929341985e+00  7.1415824316450296e+00  7.1416184573943911e+00  7.1416534009698820e+00  7.1416872922789025e+00  7.1417201603738381e+00  7.1417520334765037e+00  7.1417829390018817e+00  7.1418129035811635e+00  7.1418419530841124e+00  7.1418701126407695e+00  7.1418974066625118e+00  7.1419238588624872e+00  7.1419494922754208e+00  7.1419743292768274e+00  7.1419983916016374e+00  7.1420217003622390e+00  7.1420442760659553e+00  7.1420661386319608e+00  7.1420873074076736e+00  7.1421078011845838e+00  7.1421276382135872e+00  7.1421468362197791e+00  7.1421654124167544e+00  7.1421833835204094e+00  7.1422007657622499e+00  7.1422175749022205e+00  7.1422338262410641e+00  7.1422495346322057e+00  7.1422647144932014e+00  7.1422793798167179e+00  7.1422935441810793e+00  7.1423072207603910e+00  7.1423204223342314e+00  7.1423331612969321e+00  7.1423454496664576e+00  7.1423572990928843e+00  7.1423687208664983e+00  7.1423797259255153e+00  7.1423903248634284e+00  7.1424005279360108e+00  7.1424103450679688e+00  7.1424197858592571e+00  7.1424288595910683e+00  7.1424375752315115e+00  7.1424459414409958e+00  7.1424539665773068e+00  7.1424616587004133e+00  7.1424690255770020e+00  7.1424760746847449e+00  7.1424828132163380e+00  7.1424892480832849e+00  7.1424953859194487e+00  7.1425012330844133e+00  7.1425067956666037e+00  7.1425120794862353e+00  7.1425170900980604e+00  7.1425218327939390e+00  7.1425263126052387e+00  7.1425305343050702e+00  7.1425345024103688e+00  7.1425382211838286e+00  7.1425416946356917e+00  7.1425449265254040e+00  7.1425479203631523e+00  7.1425506794112534e+00  7.1425532066854540e+00  7.1425555049560971e+00  7.1425575767491907e+00  7.1425594243473620e+00  7.1425610497907170e+00  7.1425624548776012e+00  7.1425636411652604e+00  7.1425646099704112e+00  7.1425653623697203e+00  7.1425658992001937e+00  7.1425662210594778e+00  7.1425663283060787e+00  7.1425662210594778e+00  7.1425658992001937e+00  7.1425653623697203e+00  7.1425646099704112e+00  7.1425636411652604e+00  7.1425624548776012e+00  7.1425610497907170e+00  7.1425594243473620e+00  7.1425575767491907e+00  7.1425555049560971e+00  7.1425532066854540e+00  7.1425506794112534e+00  7.1425479203631523e+00  7.1425449265254040e+00  7.1425416946356917e+00  7.1425382211838286e+00  7.1425345024103688e+00  7.1425305343050702e+00  7.1425263126052387e+00  7.1425218327939390e+00  7.1425170900980604e+00  7.1425120794862353e+00  7.1425067956666037e+00  7.1425012330844133e+00  7.1424953859194487e+00  7.1424892480832840e+00  7.1424828132163389e+00  7.1424760746847440e+00  7.1424690255769994e+00  7.1424616587004124e+00  7.1424539665773050e+00  7.1424459414409958e+00  7.1424375752315115e+00  7.1424288595910683e+00  7.1424197858592571e+00  7.1424103450679688e+00  7.1424005279360108e+00  7.1423903248634284e+00  7.1423797259255153e+00  7.1423687208664983e+00  7.1423572990928843e+00  7.1423454496664567e+00  7.1423331612969303e+00  7.1423204223342305e+00  7.1423072207603893e+00  7.1422935441810775e+00  7.1422793798167170e+00  7.1422647144932014e+00  7.1422495346322057e+00  7.1422338262410641e+00  7.1422175749022205e+00  7.1422007657622499e+00  7.1421833835204085e+00  7.1421654124167526e+00  7.1421468362197782e+00  7.1421276382135881e+00  7.1421078011845847e+00  7.1420873074076745e+00  7.1420661386319608e+00  7.1420442760659553e+00  7.1420217003622399e+00  7.1419983916016356e+00  7.1419743292768239e+00  7.1419494922754172e+00  7.1419238588624854e+00  7.1418974066625101e+00  7.1418701126407678e+00  7.1418419530841124e+00  7.1418129035811635e+00  7.1417829390018817e+00  7.1417520334765037e+00  7.1417201603738372e+00  7.1416872922789016e+00  7.1416534009698820e+00  7.1416184573943928e+00  7.1415824316450305e+00  7.1415452929341985e+00  7.1415070095681799e+00  7.1414675489204269e+00  7.1414268774040863e+00  7.1413849604436850e+00  7.1413417624459896e+00  7.1412972467700113e+00  7.1412513756961076e+00  7.1412041103941988e+00  7.1411554108910149e+00  7.1411052360364087e+00  7.1410535434686544e+00  7.1410002895787299e+00  7.1409454294735468e+00  7.1408889169380902e+00  7.1408307043964481e+00  7.1407707428716787e+00  7.1407089819445009e+00  7.1406453697107555e+00  7.1405798527376110e+00  7.1405123760184681e+00  7.1404428829265250e+00  7.1403713151669699e+00  7.1402976127277418e+00  7.1402217138288373e+00  7.1401435548700958e+00  7.1400630703774368e+00  7.1399801929474851e+00  7.1398948531905448e+00  7.1398069796718620e+00  7.1397164988511310e+00  7.1396233350201834e+00  7.1395274102388040e+00  7.1394286442686257e+00  7.1393269545050133e+00  7.1392222559069163e+00  7.1391144609245911e+00  7.1390034794251296e+00  7.1388892186157635e+00  7.1387715829648091e+00  7.1386504741202312e+00  7.1385257908257369e+00  7.1383974288343035e+00  7.1382652808190743e+00  7.1381292362815483e+00  7.1379891814569474e+00  7.1378449992167070e+00  7.1376965689679643e+00  7.1375437665499790e+00  7.1373864641273626e+00  7.1372245300800321e+00  7.1370578288897715e+00  7.1368862210232979e+00  7.1367095628117294e+00  7.1365277063263015e+00  7.1363404992502719e+00  7.1361477847468295e+00  7.1359494013229208e+00  7.1357451826888454e+00  7.1355349576134746e+00  7.1353185497749720e+00  7.1350957776068622e+00  7.1348664541392832e+00  7.1346303868352816e+00  7.1343873774219899e+00  7.1341372217165064e+00  7.1338797094463153e+00  7.1336146240640659e+00  7.1333417425565262e+00  7.1330608352475195e+00  7.1327716655946531e+00  7.1324739899796166e+00  7.1321675574918704e+00  7.1318521097054761e+00  7.1315273804488637e+00  7.1311930955672986e+00  7.1308489726777973e+00  7.1304947209162552e+00  7.1301300406765353e+00  7.1297546233412286e+00  7.1293681510038356e+00  7.1289702961820778e+00  7.1285607215220352e+00  7.1281390794928274e+00  7.1277050120715018e+00  7.1272581504178287e+00  7.1267981145386461e+00  7.1263245129414274e+00  7.1258369422767069e+00  7.1253349869689862e+00  7.1248182188357569e+00  7.1242861966942348e+00  7.1237384659553937e+00  7.1231745582048944e+00  7.1225939907704596e+00  7.1219962662752554e+00  7.1213808721768102e+00  7.1207472802909972e+00  7.1200949463005809e+00  7.1194233092478214e+00  7.1187317910106280e+00  7.1180197957616658e+00  7.1172867094099272e+00  7.1165318990241238e+00  7.1157547122373517e+00  7.1149544766323860e+00  7.1141304991069712e+00  7.1132820652184678e+00  7.1124084385071749e+00  7.1115088597976168e+00  7.1105825464771000e+00  7.1096286917507898e+00  7.1086464638725531e+00  7.1076350053507680e+00  7.1065934321283066e+00  7.1055208327358770e+00  7.1044162674178262e+00  7.1032787672295674e+00  7.1021073331057076e+00  7.1009009348979557e+00  7.0996585103818468e+00  7.0983789642313164e+00  7.0970611669600983e+00  7.0957039538289397e+00  7.0943061237175513e+00  7.0928664379602155e+00  7.0913836191439357e+00  7.0898563498679987e+00  7.0882832714637605e+00  7.0866629826734773e+00  7.0849940382869621e+00  7.0832749477348047e+00  7.0815041736368940e+00  7.0796801303049355e+00  7.0778011821976454e+00  7.0758656423272592e+00  7.0738717706160017e+00  7.0718177722010980e+00  7.0697017956869272e+00  7.0675219313428750e+00  7.0652762092454253e+00  7.0629625973630095e+00  7.0605789995821580e+00  7.0581232536734113e+00  7.0555931291955103e+00  7.0529863253363256e+00  7.0503004686890272e+00  7.0475331109619495e+00  7.0446817266206523e+00  7.0417437104606382e+00  7.0387163751092725e+00  7.0355969484553720e+00  7.0323825710050469e+00  7.0290702931623530e+00  7.0256570724333525e+00  7.0221397705522710e+00  7.0185151505284136e+00  7.0147798736126514e+00  7.0109304961823087e+00  7.0069634665433513e+00  7.0028751216489473e+00  6.9986616837334807e+00  6.9943192568612966e+00  6.9898438233895712e+00  6.9852312403448202e+00  6.9804772357127991e+00  6.9755774046416619e+00  6.9705272055585388e+00  6.9653219561998432e+00  6.9599568295559484e+00  6.9544268497311261e+00  6.9487268877199613e+00  6.9428516571017882e+00  6.9367957096551054e+00  6.9305534308943111e+00  6.9241190355315654e+00  6.9174865628670803e+00  6.9106498721116720e+00  6.9036026376460162e+00  6.8963383442216655e+00  6.8888502821095940e+00  6.8811315422027777e+00  6.8731750110801588e+00  6.8649733660402248e+00  6.8565190701133529e+00  6.8478043670632038e+00  6.8388212763884413e+00  6.8295615883374063e+00  6.8200168589495842e+00  6.8101784051391698e+00  6.8000372998375420e+00  6.7895843672131067e+00  6.7788101779887322e+00  6.7677050448789071e+00  6.7562590181707973e+00  6.7444618814755550e+00  6.7323031476786328e+00  6.7197720551203162e+00  6.7068575640404866e+00  6.6935483533244318e+00  6.6798328175896957e+00  6.6656990646572689e+00  6.6511349134539222e+00  6.6361278923963338e+00  6.6206652383116511e+00  6.6047338959534549e+00  6.5883205181766513e+00  6.5714114668397006e+00  6.5539928145077386e+00  6.5360503470356299e+00  6.5175695671158058e+00  6.4985356988818612e+00  6.4789336936653328e+00  6.4587482370099627e+00  6.4379637570548720e+00  6.4165644344056343e+00  6.3945342136200880e+00  6.3718568164440139e+00  6.3485157569403290e+00  6.3244943586643547e+00  6.2997757740469549e+00  6.2743430061567409e+00  6.2481789330223174e+00  6.2212663347053505e+00  6.1935879233252882e+00  6.1651263762465582e+00  6.1358643726490358e+00  6.1057846337123882e+00  6.0748699666542914e+00  6.0431033128715610e+00  6.0104678004414094e+00  5.9769468012474682e+00  5.9425239930012443e+00  5.9071834264343437e+00  5.8709095979393986e+00  5.8336875279380296e+00  5.7955028452516366e+00  5.7563418777448767e+00  5.7161917495018049e+00  5.6750404847797746e+00  5.6328771189659523e+00  5.5896918167343213e+00  5.5454759975666619e+00  5.5002224687578023e+00  5.4539255659723826e+00  5.4065813013560318e+00  5.3581875191267594e+00  5.3087440584809880e+00  5.2582529235414297e+00  5.2067184599492382e+00  5.1541475375588428e+00  5.1005497385290957e+00  5.0459375499172