<?xml version="1.0"?>
<VTKFile type="UnstructuredGrid"  version="0.1"  >
<UnstructuredGrid>
<Piece  NumberOfPoints="1001" NumberOfCells="1000">
<Points>
<DataArray  type="Float64"  NumberOfComponents="3"  format="ascii">0 0 0  0.001 0 0  0.002 0 0  0.003 0 0  0.004 0 0  0.005 0 0  0.006 0 0  0.007 0 0  0.008 0 0  0.008999999999999999 0 0  0.01 0 0  0.011 0 0  0.012 0 0  0.013 0 0  0.014 0 0  0.015 0 0  0.016 0 0  0.017 0 0  0.018 0 0  0.019 0 0  0.02 0 0  0.021 0 0  0.022 0 0  0.023 0 0  0.024 0 0  0.025 0 0  0.026 0 0  0.027 0 0  0.028 0 0  0.029 0 0  0.03 0 0  0.031 0 0  0.032 0 0  0.033 0 0  0.034 0 0  0.035 0 0  0.036 0 0  0.037 0 0  0.038 0 0  0.039 0 0  0.04 0 0  0.041 0 0  0.042 0 0  0.043 0 0  0.044 0 0  0.045 0 0  0.046 0 0  0.047 0 0  0.048 0 0  0.049 0 0  0.05 0 0  0.051 0 0  0.052 0 0  0.053 0 0  0.054 0 0  0.055 0 0  0.056 0 0  0.057 0 0  0.058 0 0  0.059 0 0  0.06 0 0  0.061 0 0  0.062 0 0  0.063 0 0  0.064 0 0  0.065 0 0  0.066 0 0  0.067 0 0  0.068 0 0  0.06900000000000001 0 0  0.07000000000000001 0 0  0.07099999999999999 0 0  0.07199999999999999 0 0  0.073 0 0  0.074 0 0  0.075 0 0  0.076 0 0  0.077 0 0  0.078 0 0  0.079 0 0  0.08 0 0  0.081 0 0  0.082 0 0  0.083 0 0  0.08400000000000001 0 0  0.08500000000000001 0 0  0.08599999999999999 0 0  0.08699999999999999 0 0  0.08799999999999999 0 0  0.089 0 0  0.09 0 0  0.091 0 0  0.092 0 0  0.093 0 0  0.094 0 0  0.095 0 0  0.096 0 0  0.097 0 0  0.098 0 0  0.099 0 0  0.1 0 0  0.101 0 0  0.102 0 0  0.103 0 0  0.104 0 0  0.105 0 0  0.106 0 0  0.107 0 0  0.108 0 0  0.109 0 0  0.11 0 0  0.111 0 0  0.112 0 0  0.113 0 0  0.114 0 0  0.115 0 0  0.116 0 0  0.117 0 0  0.118 0 0  0.119 0 0  0.12 0 0  0.121 0 0  0.122 0 0  0.123 0 0  0.124 0 0  0.125 0 0  0.126 0 0  0.127 0 0  0.128 0 0  0.129 0 0  0.13 0 0  0.131 0 0  0.132 0 0  0.133 0 0  0.134 0 0  0.135 0 0  0.136 0 0  0.137 0 0  0.138 0 0  0.139 0 0  0.14 0 0  0.141 0 0  0.142 0 0  0.143 0 0  0.144 0 0  0.145 0 0  0.146 0 0  0.147 0 0  0.148 0 0  0.149 0 0  0.15 0 0  0.151 0 0  0.152 0 0  0.153 0 0  0.154 0 0  0.155 0 0  0.156 0 0  0.157 0 0  0.158 0 0  0.159 0 0  0.16 0 0  0.161 0 0  0.162 0 0  0.163 0 0  0.164 0 0  0.165 0 0  0.166 0 0  0.167 0 0  0.168 0 0  0.169 0 0  0.17 0 0  0.171 0 0  0.172 0 0  0.173 0 0  0.174 0 0  0.175 0 0  0.176 0 0  0.177 0 0  0.178 0 0  0.179 0 0  0.18 0 0  0.181 0 0  0.182 0 0  0.183 0 0  0.184 0 0  0.185 0 0  0.186 0 0  0.187 0 0  0.188 0 0  0.189 0 0  0.19 0 0  0.191 0 0  0.192 0 0  0.193 0 0  0.194 0 0  0.195 0 0  0.196 0 0  0.197 0 0  0.198 0 0  0.199 0 0  0.2 0 0  0.201 0 0  0.202 0 0  0.203 0 0  0.204 0 0  0.205 0 0  0.206 0 0  0.207 0 0  0.208 0 0  0.209 0 0  0.21 0 0  0.211 0 0  0.212 0 0  0.213 0 0  0.214 0 0  0.215 0 0  0.216 0 0  0.217 0 0  0.218 0 0  0.219 0 0  0.22 0 0  0.221 0 0  0.222 0 0  0.223 0 0  0.224 0 0  0.225 0 0  0.226 0 0  0.227 0 0  0.228 0 0  0.229 0 0  0.23 0 0  0.231 0 0  0.232 0 0  0.233 0 0  0.234 0 0  0.235 0 0  0.236 0 0  0.237 0 0  0.238 0 0  0.239 0 0  0.24 0 0  0.241 0 0  0.242 0 0  0.243 0 0  0.244 0 0  0.245 0 0  0.246 0 0  0.247 0 0  0.248 0 0  0.249 0 0  0.25 0 0  0.251 0 0  0.252 0 0  0.253 0 0  0.254 0 0  0.255 0 0  0.256 0 0  0.257 0 0  0.258 0 0  0.259 0 0  0.26 0 0  0.261 0 0  0.262 0 0  0.263 0 0  0.264 0 0  0.265 0 0  0.266 0 0  0.267 0 0  0.268 0 0  0.269 0 0  0.27 0 0  0.271 0 0  0.272 0 0  0.273 0 0  0.274 0 0  0.275 0 0  0.276 0 0  0.277 0 0  0.278 0 0  0.279 0 0  0.28 0 0  0.281 0 0  0.282 0 0  0.283 0 0  0.284 0 0  0.285 0 0  0.286 0 0  0.287 0 0  0.288 0 0  0.289 0 0  0.29 0 0  0.291 0 0  0.292 0 0  0.293 0 0  0.294 0 0  0.295 0 0  0.296 0 0  0.297 0 0  0.298 0 0  0.299 0 0  0.3 0 0  0.301 0 0  0.302 0 0  0.303 0 0  0.304 0 0  0.305 0 0  0.306 0 0  0.307 0 0  0.308 0 0  0.309 0 0  0.31 0 0  0.311 0 0  0.312 0 0  0.313 0 0  0.314 0 0  0.315 0 0  0.316 0 0  0.317 0 0  0.318 0 0  0.319 0 0  0.32 0 0  0.321 0 0  0.322 0 0  0.323 0 0  0.324 0 0  0.325 0 0  0.326 0 0  0.327 0 0  0.328 0 0  0.329 0 0  0.33 0 0  0.331 0 0  0.332 0 0  0.333 0 0  0.334 0 0  0.335 0 0  0.336 0 0  0.337 0 0  0.338 0 0  0.339 0 0  0.34 0 0  0.341 0 0  0.342 0 0  0.343 0 0  0.344 0 0  0.345 0 0  0.346 0 0  0.347 0 0  0.348 0 0  0.349 0 0  0.35 0 0  0.351 0 0  0.352 0 0  0.353 0 0  0.354 0 0  0.355 0 0  0.356 0 0  0.357 0 0  0.358 0 0  0.359 0 0  0.36 0 0  0.361 0 0  0.362 0 0  0.363 0 0  0.364 0 0  0.365 0 0  0.366 0 0  0.367 0 0  0.368 0 0  0.369 0 0  0.37 0 0  0.371 0 0  0.372 0 0  0.373 0 0  0.374 0 0  0.375 0 0  0.376 0 0  0.377 0 0  0.378 0 0  0.379 0 0  0.38 0 0  0.381 0 0  0.382 0 0  0.383 0 0  0.384 0 0  0.385 0 0  0.386 0 0  0.387 0 0  0.388 0 0  0.389 0 0  0.39 0 0  0.391 0 0  0.392 0 0  0.393 0 0  0.394 0 0  0.395 0 0  0.396 0 0  0.397 0 0  0.398 0 0  0.399 0 0  0.4 0 0  0.401 0 0  0.402 0 0  0.403 0 0  0.404 0 0  0.405 0 0  0.406 0 0  0.407 0 0  0.408 0 0  0.409 0 0  0.41 0 0  0.411 0 0  0.412 0 0  0.413 0 0  0.414 0 0  0.415 0 0  0.416 0 0  0.417 0 0  0.418 0 0  0.419 0 0  0.42 0 0  0.421 0 0  0.422 0 0  0.423 0 0  0.424 0 0  0.425 0 0  0.426 0 0  0.427 0 0  0.428 0 0  0.429 0 0  0.43 0 0  0.431 0 0  0.432 0 0  0.433 0 0  0.434 0 0  0.435 0 0  0.436 0 0  0.437 0 0  0.438 0 0  0.439 0 0  0.44 0 0  0.441 0 0  0.442 0 0  0.443 0 0  0.444 0 0  0.445 0 0  0.446 0 0  0.447 0 0  0.448 0 0  0.449 0 0  0.45 0 0  0.451 0 0  0.452 0 0  0.453 0 0  0.454 0 0  0.455 0 0  0.456 0 0  0.457 0 0  0.458 0 0  0.459 0 0  0.46 0 0  0.461 0 0  0.462 0 0  0.463 0 0  0.464 0 0  0.465 0 0  0.466 0 0  0.467 0 0  0.468 0 0  0.469 0 0  0.47 0 0  0.471 0 0  0.472 0 0  0.473 0 0  0.474 0 0  0.475 0 0  0.476 0 0  0.477 0 0  0.478 0 0  0.479 0 0  0.48 0 0  0.481 0 0  0.482 0 0  0.483 0 0  0.484 0 0  0.485 0 0  0.486 0 0  0.487 0 0  0.488 0 0  0.489 0 0  0.49 0 0  0.491 0 0  0.492 0 0  0.493 0 0  0.494 0 0  0.495 0 0  0.496 0 0  0.497 0 0  0.498 0 0  0.499 0 0  0.5 0 0  0.501 0 0  0.502 0 0  0.503 0 0  0.504 0 0  0.505 0 0  0.506 0 0  0.507 0 0  0.508 0 0  0.509 0 0  0.51 0 0  0.511 0 0  0.512 0 0  0.513 0 0  0.514 0 0  0.515 0 0  0.516 0 0  0.517 0 0  0.518 0 0  0.519 0 0  0.52 0 0  0.521 0 0  0.522 0 0  0.523 0 0  0.524 0 0  0.525 0 0  0.526 0 0  0.527 0 0  0.528 0 0  0.529 0 0  0.53 0 0  0.531 0 0  0.532 0 0  0.533 0 0  0.534 0 0  0.535 0 0  0.536 0 0  0.537 0 0  0.538 0 0  0.539 0 0  0.54 0 0  0.541 0 0  0.542 0 0  0.543 0 0  0.544 0 0  0.545 0 0  0.546 0 0  0.547 0 0  0.548 0 0  0.549 0 0  0.55 0 0  0.551 0 0  0.552 0 0  0.553 0 0  0.554 0 0  0.555 0 0  0.556 0 0  0.5570000000000001 0 0  0.5580000000000001 0 0  0.5590000000000001 0 0  0.5600000000000001 0 0  0.5610000000000001 0 0  0.5620000000000001 0 0  0.5629999999999999 0 0  0.5639999999999999 0 0  0.5649999999999999 0 0  0.5659999999999999 0 0  0.5669999999999999 0 0  0.5679999999999999 0 0  0.569 0 0  0.57 0 0  0.571 0 0  0.572 0 0  0.573 0 0  0.574 0 0  0.575 0 0  0.576 0 0  0.577 0 0  0.578 0 0  0.579 0 0  0.58 0 0  0.581 0 0  0.582 0 0  0.583 0 0  0.584 0 0  0.585 0 0  0.586 0 0  0.587 0 0  0.588 0 0  0.589 0 0  0.59 0 0  0.591 0 0  0.592 0 0  0.593 0 0  0.594 0 0  0.595 0 0  0.596 0 0  0.597 0 0  0.598 0 0  0.599 0 0  0.6 0 0  0.601 0 0  0.602 0 0  0.603 0 0  0.604 0 0  0.605 0 0  0.606 0 0  0.607 0 0  0.608 0 0  0.609 0 0  0.61 0 0  0.611 0 0  0.612 0 0  0.613 0 0  0.614 0 0  0.615 0 0  0.616 0 0  0.617 0 0  0.618 0 0  0.619 0 0  0.62 0 0  0.621 0 0  0.622 0 0  0.623 0 0  0.624 0 0  0.625 0 0  0.626 0 0  0.627 0 0  0.628 0 0  0.629 0 0  0.63 0 0  0.631 0 0  0.632 0 0  0.633 0 0  0.634 0 0  0.635 0 0  0.636 0 0  0.637 0 0  0.638 0 0  0.639 0 0  0.64 0 0  0.641 0 0  0.642 0 0  0.643 0 0  0.644 0 0  0.645 0 0  0.646 0 0  0.647 0 0  0.648 0 0  0.649 0 0  0.65 0 0  0.651 0 0  0.652 0 0  0.653 0 0  0.654 0 0  0.655 0 0  0.656 0 0  0.657 0 0  0.658 0 0  0.659 0 0  0.66 0 0  0.661 0 0  0.662 0 0  0.663 0 0  0.664 0 0  0.665 0 0  0.666 0 0  0.667 0 0  0.668 0 0  0.669 0 0  0.67 0 0  0.671 0 0  0.672 0 0  0.673 0 0  0.674 0 0  0.675 0 0  0.676 0 0  0.677 0 0  0.678 0 0  0.679 0 0  0.68 0 0  0.681 0 0  0.6820000000000001 0 0  0.6830000000000001 0 0  0.6840000000000001 0 0  0.6850000000000001 0 0  0.6860000000000001 0 0  0.6870000000000001 0 0  0.6879999999999999 0 0  0.6889999999999999 0 0  0.6899999999999999 0 0  0.6909999999999999 0 0  0.6919999999999999 0 0  0.6929999999999999 0 0  0.694 0 0  0.695 0 0  0.696 0 0  0.697 0 0  0.698 0 0  0.699 0 0  0.7 0 0  0.701 0 0  0.702 0 0  0.703 0 0  0.704 0 0  0.705 0 0  0.706 0 0  0.707 0 0  0.708 0 0  0.709 0 0  0.71 0 0  0.711 0 0  0.712 0 0  0.713 0 0  0.714 0 0  0.715 0 0  0.716 0 0  0.717 0 0  0.718 0 0  0.719 0 0  0.72 0 0  0.721 0 0  0.722 0 0  0.723 0 0  0.724 0 0  0.725 0 0  0.726 0 0  0.727 0 0  0.728 0 0  0.729 0 0  0.73 0 0  0.731 0 0  0.732 0 0  0.733 0 0  0.734 0 0  0.735 0 0  0.736 0 0  0.737 0 0  0.738 0 0  0.739 0 0  0.74 0 0  0.741 0 0  0.742 0 0  0.743 0 0  0.744 0 0  0.745 0 0  0.746 0 0  0.747 0 0  0.748 0 0  0.749 0 0  0.75 0 0  0.751 0 0  0.752 0 0  0.753 0 0  0.754 0 0  0.755 0 0  0.756 0 0  0.757 0 0  0.758 0 0  0.759 0 0  0.76 0 0  0.761 0 0  0.762 0 0  0.763 0 0  0.764 0 0  0.765 0 0  0.766 0 0  0.767 0 0  0.768 0 0  0.769 0 0  0.77 0 0  0.771 0 0  0.772 0 0  0.773 0 0  0.774 0 0  0.775 0 0  0.776 0 0  0.777 0 0  0.778 0 0  0.779 0 0  0.78 0 0  0.781 0 0  0.782 0 0  0.783 0 0  0.784 0 0  0.785 0 0  0.786 0 0  0.787 0 0  0.788 0 0  0.789 0 0  0.79 0 0  0.791 0 0  0.792 0 0  0.793 0 0  0.794 0 0  0.795 0 0  0.796 0 0  0.797 0 0  0.798 0 0  0.799 0 0  0.8 0 0  0.801 0 0  0.802 0 0  0.803 0 0  0.804 0 0  0.805 0 0  0.806 0 0  0.8070000000000001 0 0  0.8080000000000001 0 0  0.8090000000000001 0 0  0.8100000000000001 0 0  0.8110000000000001 0 0  0.8120000000000001 0 0  0.8129999999999999 0 0  0.8139999999999999 0 0  0.8149999999999999 0 0  0.8159999999999999 0 0  0.8169999999999999 0 0  0.8179999999999999 0 0  0.819 0 0  0.82 0 0  0.821 0 0  0.822 0 0  0.823 0 0  0.824 0 0  0.825 0 0  0.826 0 0  0.827 0 0  0.828 0 0  0.829 0 0  0.83 0 0  0.831 0 0  0.832 0 0  0.833 0 0  0.834 0 0  0.835 0 0  0.836 0 0  0.837 0 0  0.838 0 0  0.839 0 0  0.84 0 0  0.841 0 0  0
[...]
<PointData  Scalars="f_20-0"> 
<DataArray  type="Float64"  Name="f_20-0"  format="ascii">2.0000017524192084e+00  2.0000017666861765e+00  2.0000018097026677e+00  2.0000018821184331e+00  2.0000019850263944e+00  2.0000021199777827e+00  2.0000022890035876e+00  2.0000024946426000e+00  2.0000027399763924e+00  2.0000030286716632e+00  2.0000033650304805e+00  2.0000037540490396e+00  2.0000042014856594e+00  2.0000047139388575e+00  2.0000052989364385e+00  2.0000059650367046e+00  2.0000067219429796e+00  2.0000075806328526e+00  2.0000085535036711e+00  2.0000096545360084e+00  2.0000108994770489e+00  2.0000123060460417e+00  2.0000138941642094e+00  2.0000156862117877e+00  2.0000177073151493e+00  2.0000199856672971e+00  2.0000225528853663e+00  2.0000254444091623e+00  2.0000286999451942e+00  2.0000323639611408e+00  2.0000364862361981e+00  2.0000411224733194e+00  2.0000463349800151e+00  2.0000521934250162e+00  2.0000587756789119e+00  2.0000661687476398e+00  2.0000744698086614e+00  2.0000837873605941e+00  2.0000942424981907e+00  2.0001059703257060e+00  2.0001191215229852e+00  2.0001338640800266e+00  2.0001503852172826e+00  2.0001688935106414e+00  2.0001896212418369e+00  2.0002128269970187e+00  2.0002387985383452e+00  2.0002678559757912e+00  2.0003003552688878e+00  2.0003366920908134e+00  2.0003773060902441e+00  2.0004226855895024e+00  2.0004733727610287e+00  2.0005299693278364e+00  2.0005931428376238e+00  2.0006636335644381e+00  2.0007422620963657e+00  2.0008299376725591e+00  2.0009276673381069e+00  2.0010365659907525e+00  2.0011578673992947e+00  2.0012929362796283e+00  2.0014432815209005e+00  2.0016105706609770e+00  2.0017966457174770e+00  2.0020035404879395e+00  2.0022334994401789e+00  2.0024889983215335e+00  2.0027727666234263e+00  2.0030878120453695e+00  2.0034374471100920e+00  2.0038253180887136e+00  2.0042554364017073e+00  2.0047322126674780e+00  2.0052604935755221e+00  2.0058456017650044e+00  2.0064933788917916e+00  2.0072102320671021e+00  2.0080031838484085e+00  2.0088799259574892e+00  2.0098488768908149e+00  2.0109192435729901e+00  2.0121010871838148e+00  2.0134053932625622e+00  2.0148441461581736e+00  2.0164304078497950e+00  2.0181784011070478e+00  2.0201035968918912e+00  2.0222228058222140e+00  2.0245542734194784e+00  2.0271177787468839e+00  2.0299347359086135e+00  2.0330282977228973e+00  2.0364234606999894e+00  2.0401471702492278e+00  2.0442284248059157e+00  2.0486983773084391e+00  2.0535904321689871e+00  2.0589403355690608e+00  2.0647862565764710e+00  2.0711688562285699e+00  2.0781313413638465e+00  2.0857194996204611e+00  2.0939817116682491e+00  2.1029689364161364e+00  2.1127346646592180e+00  2.1233348364220972e+00  2.1348277171439372e+00  2.1472737278656471e+00  2.1607352247523193e+00  2.1752762236468040e+00  2.1909620659344422e+00  2.2078590228321038e+00  2.2260338363179848e+00  2.2455531963034647e+00  2.2664831553125735e+00  2.2888884838594228e+00  2.3128319718605126e+00  2.3383736837263949e+00  2.3655701771626543e+00  2.3944736980688428e+00  2.4251313661338436e+00  2.4575843676527320e+00  2.4918671735962072e+00  2.5280068019179334e+00  2.5660221433747865e+00  2.6059233696766038e+00  2.6477114415317584e+00  2.6913777321161523e+00  2.7369037787210373e+00  2.7842611719348551e+00  2.8334115878369253e+00  2.8843069645125685e+00  2.9368898199478779e+00  2.9910937042416887e+00  3.0468437752853608e+00  3.1040574837852333e+00  3.1626453508775438e+00  3.2225118197040596e+00  3.2835561612220743e+00  3.3456734142082727e+00  3.4087553398325077e+00  3.4726913722380441e+00  3.5373695481574665e+00  3.6026774005905646e+00  3.6685028038398548e+00  3.7347347596132181e+00  3.8012641163448397e+00  3.8679842162557936e+00  3.9347914668941093e+00  4.0015858359017251e+00  4.0682712695131205e+00  4.1347560367768139e+00  4.2009530027007749e+00  4.2667798344638888e+00  4.3321591455247432e+00  4.3970185829198760e+00  4.4612908633040789e+00  4.5249137633749372e+00  4.5878300702721084e+00  4.6499874973773903e+00  4.7113385706906081e+00  4.7718404906422434e+00  4.8314549738470980e+00  4.8901480789212091e+00  4.9478900200913474e+00  5.0046549719339231e+00  5.0604208681970970e+00  5.1151691972929800e+00  5.1688847967007368e+00  5.2215556481993604e+00  5.2731726755527388e+00  5.3237295460000320e+00  5.3732224766614358e+00  5.4216500467522453e+00  5.4690130163059258e+00  5.5153141519379094e+00  5.5605580600345856e+00  5.6047510276247516e+00  5.6479008710817462e+00  5.6900167927119334e+00  5.7311092452072874e+00  5.7711898038752611e+00  5.8102710465058740e+00  5.8483664406931331e+00  5.8854902383938184e+00  5.9216573774804315e+00  5.9568833900253297e+00  5.9911843170392709e+00  6.0245766293782586e+00  6.0570771545277937e+00  6.0887030089718062e+00  6.1194715358549665e+00  6.1494002476504681e+00  6.1785067735510113e+00  6.2068088113075168e+00  6.2343240832483797e+00  6.2610702962210381e+00  6.2870651052073487e+00  6.3123260803744712e+00  6.3368706773333203e+00  6.3607162103873094e+00  6.3838798285646829e+00  6.4063784942382762e+00  6.4282289641469470e+00  6.4494477726430341e+00  6.4700512170002096e+00  6.4900553446255804e+00  6.5094759420292432e+00  6.5283285254133414e+00  6.5466283327513306e+00  6.5643903172361791e+00  6.5816291419841750e+00  6.5983591758883078e+00  6.6145944905223342e+00  6.6303488580032033e+00  6.6456357497259431e+00  6.6604683358909798e+00  6.6748594857495425e+00  6.6888217684980793e+00  6.7023674547576393e+00  6.7155085185787460e+00  6.7282566399168697e+00  6.7406232075275332e+00  6.7526193222341000e+00  6.7642558005248210e+00  6.7755431784391327e+00  6.7864917157063411e+00  6.7971114001028354e+00  6.8074119519965839e+00  6.8174028290504038e+00  6.8270932310577725e+00  6.8364921048871956e+00  6.8456081495132013e+00  6.8544498211140308e+00  6.8630253382177315e+00  6.8713426868801717e+00  6.8794096258799282e+00  6.8872336919164443e+00  6.8948222047991985e+00  6.9021822726168347e+00  6.9093207968762735e+00  6.9162444776029943e+00  6.9229598183944532e+00  6.9294731314197309e+00  6.9357905423590145e+00  6.9419179952776044e+00  6.9478612574295431e+00  6.9536259239867571e+00  6.9592174226901662e+00  6.9646410184197061e+00  6.9699018176806788e+00  6.9750047730044180e+00  6.9799546872615341e+00  6.9847562178863773e+00  6.9894138810118367e+00  6.9939320555137243e+00  6.9983149869643784e+00  7.0025667914953464e+00  7.0066914595692440e+00  7.0106928596610478e+00  7.0145747418493523e+00  7.0183407413181600e+00  7.0219943817700701e+00  7.0255390787517218e+00  7.0289781428925711e+00  7.0323147830580925e+00  7.0355521094186795e+00  7.0386931364354872e+00  7.0417407857646568e+00  7.0446978890812728e+00  7.0475671908245650e+00  7.0503513508658697e+00  7.0530529471008627e+00  7.0556744779676688e+00  7.0582183648924044e+00  7.0606869546637547e+00  7.0630825217382140e+00  7.0654072704775759e+00  7.0676633373203028e+00  7.0698527928883426e+00  7.0719776440310582e+00  7.0740398358077545e+00  7.0760412534104855e+00  7.0779837240286003e+00  7.0798690186566340e+00  7.0816988538470227e+00  7.0834748934091456e+00  7.0851987500561657e+00  7.0868719870011434e+00  7.0884961195037830e+00  7.0900726163692802e+00  7.0916029014005693e+00  7.0930883548053920e+00  7.0945303145594041e+00  7.0959300777266954e+00  7.0972889017389207e+00  7.0986080056342802e+00  7.0998885712575719e+00  7.1011317444224487e+00  7.1023386360370608e+00  7.1035103231941461e+00  7.1046478502267103e+00  7.1057522297302871e+00  7.1068244435528776e+00  7.1078654437535089e+00  7.1088761535303941e+00  7.1098574681196967e+00  7.1108102556657338e+00  7.1117353580635649e+00  7.1126335917748431e+00  7.1135057486177233e+00  7.1143525965316883e+00  7.1151748803180768e+00  7.1159733223570827e+00  7.1167486233019668e+00  7.1175014627512123e+00  7.1182324998993476e+00  7.1189423741670890e+00  7.1196317058114662e+00  7.1203010965166076e+00  7.1209511299657740e+00  7.1215823723952516e+00  7.1221953731306833e+00  7.1227906651064243e+00  7.1233687653684443e+00  7.1239301755613225e+00  7.1244753823998357e+00  7.1250048581256653e+00  7.1255190609496575e+00  7.1260184354801490e+00  7.1265034131377831e+00  7.1269744125572609e+00  7.1274318399764445e+00  7.1278760896132329e+00  7.1283075440305925e+00  7.1287265744901278e+00  7.1291335412945704e+00  7.1295287941195413e+00  7.1299126723349282e+00  7.1302855053162144e+00  7.1306476127460785e+00  7.1309993049066058e+00  7.1313408829623715e+00  7.1316726392347283e+00  7.1319948574675482e+00  7.1323078130847293e+00  7.1326117734396961e+00  7.1329069980571873e+00  7.1331937388675346e+00  7.1334722404337150e+00  7.1337427401713951e+00  7.1340054685621697e+00  7.1342606493602458e+00  7.1345084997927657e+00  7.1347492307539593e+00  7.1349830469933488e+00  7.1352101472981904e+00  7.1354307246702975e+00  7.1356449664974928e+00  7.1358530547197958e+00  7.1360551659905394e+00  7.1362514718326056e+00  7.1364421387898709e+00  7.1366273285740522e+00  7.1368071982071246e+00  7.1369819001593724e+00  7.1371515824833001e+00  7.1373163889434599e+00  7.1374764591423938e+00  7.1376319286427155e+00  7.1377829290855850e+00  7.1379295883055525e+00  7.1380720304419807e+00  7.1382103760471258e+00  7.1383447421909487e+00  7.1384752425628122e+00  7.1386019875701248e+00  7.1387250844340260e+00  7.1388446372822338e+00  7.1389607472391106e+00  7.1390735125130513e+00  7.1391830284812636e+00  7.1392893877720489e+00  7.1393926803446188e+00  7.1394929935665639e+00  7.1395904122890093e+00  7.1396850189195629e+00  7.1397768934931110e+00  7.1398661137405171e+00  7.1399527551552939e+00  7.1400368910583216e+00  7.1401185926606558e+00  7.1401979291245006e+00  7.1402749676223731e+00  7.1403497733945622e+00  7.1404224098048878e+00  7.1404929383948268e+00  7.1405614189360689e+00  7.1406279094815348e+00  7.1406924664149107e+00  7.1407551444987272e+00  7.1408159969210612e+00  7.1408750753408565e+00  7.1409324299319543e+00  7.1409881094258205e+00  7.1410421611530577e+00  7.1410946310836971e+00  7.1411455638663375e+00  7.1411950028661497e+00  7.1412429902017633e+00  7.1412895667811247e+00  7.1413347723362905e+00  7.1413786454572321e+00  7.1414212236246515e+00  7.1414625432418726e+00  7.1415026396657906e+00  7.1415415472369466e+00  7.1415792993087148e+00  7.1416159282756828e+00  7.1416514656011731e+00  7.1416859418439991e+00  7.1417193866844384e+00  7.1417518289494568e+00  7.1417832966371968e+00  7.1418138169407674e+00  7.1418434162713318e+00  7.1418721202805253e+00  7.1418999538822305e+00  7.1419269412737112e+00  7.1419531059560963e+00  7.1419784707543137e+00  7.1420030578363809e+00  7.1420268887321621e+00  7.1420499843515399e+00  7.1420723650020399e+00  7.1420940504059347e+00  7.1421150597168079e+00  7.1421354115356204e+00  7.1421551239262708e+00  7.1421742144306615e+00  7.1421927000832905e+00  7.1422105974253807e+00  7.1422279225185248e+00  7.1422446909579076e+00  7.1422609178850802e+00  7.1422766180002677e+00  7.1422918055743025e+00  7.1423064944600965e+00  7.1423206981037355e+00  7.1423344295551434e+00  7.1423477014783758e+00  7.1423605261615100e+00  7.1423729155261642e+00  7.1423848811366515e+00  7.1423964342087478e+00  7.1424075856181277e+00  7.1424183459084398e+00  7.1424287252990544e+00  7.1424387336924493e+00  7.1424483806813051e+00  7.1424576755552733e+00  7.1424666273074200e+00  7.1424752446403961e+00  7.1424835359723007e+00  7.1424915094422685e+00  7.1424991729157803e+00  7.1425065339897138e+00  7.1425135999971348e+00  7.1425203780118380e+00  7.1425268748526598e+00  7.1425330970875525e+00  7.1425390510374376e+00  7.1425447427798527e+00  7.1425501781523915e+00  7.1425553627559397e+00  7.1425603019577428e+00  7.1425650008942565e+00  7.1425694644738771e+00  7.1425736973794587e+00  7.1425777040706979e+00  7.1425814887863570e+00  7.1425850555463484e+00  7.1425884081536672e+00  7.1425915501962107e+00  7.1425944850484555e+00  7.1425972158730131e+00  7.1425997456220713e+00  7.1426020770387222e+00  7.1426042126581804e+00  7.1426061548088908e+00  7.1426079056135485e+00  7.1426094669899998e+00  7.1426108406520736e+00  7.1426120281102961e+00  7.1426130306725266e+00  7.1426138494445004e+00  7.1426144853302951e+00  7.1426149390326916e+00  7.1426152110534717e+00  7.1426153016936258e+00  7.1426152110534709e+00  7.1426149390326898e+00  7.1426144853302942e+00  7.1426138494445031e+00  7.1426130306725275e+00  7.1426120281102987e+00  7.1426108406520754e+00  7.1426094669900015e+00  7.1426079056135512e+00  7.1426061548088944e+00  7.1426042126581839e+00  7.1426020770387249e+00  7.1425997456220705e+00  7.1425972158730122e+00  7.1425944850484537e+00  7.1425915501962089e+00  7.1425884081536646e+00  7.1425850555463448e+00  7.1425814887863552e+00  7.1425777040706944e+00  7.1425736973794551e+00  7.1425694644738735e+00  7.1425650008942521e+00  7.1425603019577375e+00  7.1425553627559379e+00  7.1425501781523870e+00  7.1425447427798492e+00  7.1425390510374358e+00  7.1425330970875507e+00  7.1425268748526598e+00  7.1425203780118380e+00  7.1425135999971374e+00  7.1425065339897209e+00  7.1424991729157856e+00  7.1424915094422730e+00  7.1424835359723060e+00  7.1424752446403987e+00  7.1424666273074235e+00  7.1424576755552742e+00  7.1424483806813059e+00  7.1424387336924475e+00  7.1424287252990508e+00  7.1424183459084372e+00  7.1424075856181242e+00  7.1423964342087443e+00  7.1423848811366497e+00  7.1423729155261642e+00  7.1423605261615073e+00  7.1423477014783749e+00  7.1423344295551416e+00  7.1423206981037346e+00  7.1423064944600974e+00  7.1422918055742999e+00  7.1422766180002677e+00  7.1422609178850802e+00  7.1422446909579111e+00  7.1422279225185239e+00  7.1422105974253807e+00  7.1421927000832914e+00  7.1421742144306624e+00  7.1421551239262726e+00  7.1421354115356204e+00  7.1421150597168062e+00  7.1420940504059347e+00  7.1420723650020399e+00  7.1420499843515399e+00  7.1420268887321612e+00  7.1420030578363809e+00  7.1419784707543128e+00  7.1419531059560999e+00  7.1419269412737112e+00  7.1418999538822314e+00  7.1418721202805227e+00  7.1418434162713309e+00  7.1418138169407683e+00  7.1417832966371986e+00  7.1417518289494586e+00  7.1417193866844393e+00  7.1416859418439991e+00  7.1416514656011696e+00  7.1416159282756846e+00  7.1415792993087139e+00  7.1415415472369448e+00  7.1415026396657906e+00  7.1414625432418708e+00  7.1414212236246479e+00  7.1413786454572312e+00  7.1413347723362897e+00  7.1412895667811211e+00  7.1412429902017625e+00  7.1411950028661506e+00  7.1411455638663401e+00  7.1410946310836954e+00  7.1410421611530550e+00  7.1409881094258214e+00  7.1409324299319552e+00  7.1408750753408601e+00  7.1408159969210638e+00  7.1407551444987307e+00  7.1406924664149134e+00  7.1406279094815357e+00  7.1405614189360671e+00  7.1404929383948241e+00  7.1404224098048843e+00  7.1403497733945596e+00  7.1402749676223696e+00  7.1401979291244961e+00  7.1401185926606541e+00  7.1400368910583181e+00  7.1399527551552922e+00  7.1398661137405135e+00  7.1397768934931074e+00  7.1396850189195593e+00  7.1395904122890093e+00  7.1394929935665656e+00  7.1393926803446188e+00  7.1392893877720489e+00  7.1391830284812601e+00  7.1390735125130469e+00  7.1389607472391106e+00  7.1388446372822356e+00  7.1387250844340260e+00  7.1386019875701265e+00  7.1384752425628166e+00  7.1383447421909523e+00  7.1382103760471303e+00  7.1380720304419825e+00  7.1379295883055516e+00  7.1377829290855868e+00  7.1376319286427163e+00  7.1374764591423894e+00  7.1373163889434581e+00  7.1371515824832974e+00  7.1369819001593733e+00  7.1368071982071264e+00  7.1366273285740540e+00  7.1364421387898727e+00  7.1362514718326073e+00  7.1360551659905394e+00  7.1358530547197914e+00  7.1356449664974928e+00  7.1354307246702975e+00  7.1352101472981886e+00  7.1349830469933471e+00  7.1347492307539540e+00  7.1345084997927604e+00  7.1342606493602441e+00  7.1340054685621670e+00  7.1337427401713915e+00  7.1334722404337114e+00  7.1331937388675302e+00  7.1329069980571811e+00  7.1326117734396934e+00  7.1323078130847239e+00  7.1319948574675447e+00  7.1316726392347265e+00  7.1313408829623706e+00  7.1309993049066094e+00  7.1306476127460794e+00  7.1302855053162153e+00  7.1299126723349318e+00  7.1295287941195449e+00  7.1291335412945722e+00  7.1287265744901278e+00  7.1283075440305925e+00  7.1278760896132329e+00  7.1274318399764445e+00  7.1269744125572609e+00  7.1265034131377831e+00  7.1260184354801499e+00  7.1255190609496593e+00  7.1250048581256680e+00  7.1244753823998384e+00  7.1239301755613234e+00  7.1233687653684461e+00  7.1227906651064261e+00  7.1221953731306842e+00  7.1215823723952525e+00  7.1209511299657748e+00  7.1203010965166094e+00  7.1196317058114689e+00  7.1189423741670916e+00  7.1182324998993503e+00  7.1175014627512132e+00  7.1167486233019659e+00  7.1159733223570836e+00  7.1151748803180777e+00  7.1143525965316874e+00  7.1135057486177198e+00  7.1126335917748404e+00  7.1117353580635605e+00  7.1108102556657293e+00  7.1098574681196949e+00  7.1088761535303915e+00  7.1078654437535072e+00  7.1068244435528758e+00  7.1057522297302835e+00  7.1046478502267050e+00  7.1035103231941426e+00  7.1023386360370573e+00  7.1011317444224451e+00  7.0998885712575683e+00  7.0986080056342802e+00  7.0972889017389198e+00  7.0959300777266936e+00  7.0945303145594014e+00  7.0930883548053867e+00  7.0916029014005675e+00  7.0900726163692767e+00  7.0884961195037821e+00  7.0868719870011425e+00  7.0851987500561657e+00  7.0834748934091429e+00  7.0816988538470218e+00  7.0798690186566322e+00  7.0779837240285994e+00  7.0760412534104864e+00  7.0740398358077572e+00  7.0719776440310582e+00  7.0698527928883426e+00  7.0676633373203011e+00  7.0654072704775759e+00  7.0630825217382114e+00  7.0606869546637556e+00  7.0582183648924053e+00  7.0556744779676688e+00  7.0530529471008627e+00  7.0503513508658697e+00  7.0475671908245667e+00  7.0446978890812693e+00  7.0417407857646523e+00  7.0386931364354837e+00  7.0355521094186759e+00  7.0323147830580917e+00  7.0289781428925693e+00  7.0255390787517191e+00  7.0219943817700656e+00  7.0183407413181556e+00  7.0145747418493505e+00  7.0106928596610478e+00  7.0066914595692422e+00  7.0025667914953447e+00  6.9983149869643775e+00  6.9939320555137243e+00  6.9894138810118367e+00  6.9847562178863756e+00  6.9799546872615332e+00  6.9750047730044180e+00  6.9699018176806762e+00  6.9646410184197052e+00  6.9592174226901662e+00  6.9536259239867535e+00  6.9478612574295413e+00  6.9419179952776044e+00  6.9357905423590145e+00  6.9294731314197309e+00  6.9229598183944541e+00  6.9162444776029952e+00  6.9093207968762798e+00  6.9021822726168427e+00  6.8948222047992065e+00  6.8872336919164532e+00  6.8794096258799353e+00  6.8713426868801788e+00  6.8630253382177386e+00  6.8544498211140370e+00  6.8456081495132066e+00  6.8364921048872000e+00  6.8270932310577770e+00  6.8174028290504047e+00  6.8074119519965857e+00  6.7971114001028399e+00  6.7864917157063438e+00  6.7755431784391327e+00  6.7642558005248210e+00  6.7526193222341000e+00  6.7406232075275332e+00  6.7282566399168697e+00  6.7155085185787451e+00  6.7023674547576375e+00  6.6888217684980775e+00  6.6748594857495371e+00  6.6604683358909789e+00  6.6456357497259413e+00  6.6303488580032033e+00  6.6145944905223333e+00  6.5983591758883060e+00  6.5816291419841724e+00  6.5643903172361782e+00  6.5466283327513279e+00  6.5283285254133387e+00  6.5094759420292405e+00  6.4900553446255795e+00  6.4700512170002105e+00  6.4494477726430368e+00  6.4282289641469488e+00  6.4063784942382798e+00  6.3838798285646847e+00  6.3607162103873076e+00  6.3368706773333221e+00  6.3123260803744703e+00  6.2870651052073487e+00  6.2610702962210381e+00  6.2343240832483824e+00  6.2068088113075222e+00  6.1785067735510184e+00  6.1494002476504743e+00  6.1194715358549692e+00  6.0887030089718088e+00  6.0570771545277919e+00  6.0245766293782586e+00  5.9911843170392700e+00  5.9568833900253342e+00  5.9216573774804324e+00  5.8854902383938228e+00  5.8483664406931410e+00  5.8102710465058829e+00  5.7711898038752709e+00  5.7311092452072945e+00  5.6900167927119405e+00  5.6479008710817533e+00  5.6047510276247587e+00  5.5605580600345927e+00  5.5153141519379201e+00  5.4690130163059338e+00  5.4216500467522541e+00  5.3732224766614474e+00  5.3237295460000418e+00  5.2731726755527