<?xml version="1.0"?>
<VTKFile type="UnstructuredGrid"  version="0.1"  >
<UnstructuredGrid>
<Piece  NumberOfPoints="1001" NumberOfCells="1000">
<Points>
<DataArray  type="Float64"  NumberOfComponents="3"  format="ascii">0 0 0  0.001 0 0  0.002 0 0  0.003 0 0  0.004 0 0  0.005 0 0  0.006 0 0  0.007 0 0  0.008 0 0  0.008999999999999999 0 0  0.01 0 0  0.011 0 0  0.012 0 0  0.013 0 0  0.014 0 0  0.015 0 0  0.016 0 0  0.017 0 0  0.018 0 0  0.019 0 0  0.02 0 0  0.021 0 0  0.022 0 0  0.023 0 0  0.024 0 0  0.025 0 0  0.026 0 0  0.027 0 0  0.028 0 0  0.029 0 0  0.03 0 0  0.031 0 0  0.032 0 0  0.033 0 0  0.034 0 0  0.035 0 0  0.036 0 0  0.037 0 0  0.038 0 0  0.039 0 0  0.04 0 0  0.041 0 0  0.042 0 0  0.043 0 0  0.044 0 0  0.045 0 0  0.046 0 0  0.047 0 0  0.048 0 0  0.049 0 0  0.05 0 0  0.051 0 0  0.052 0 0  0.053 0 0  0.054 0 0  0.055 0 0  0.056 0 0  0.057 0 0  0.058 0 0  0.059 0 0  0.06 0 0  0.061 0 0  0.062 0 0  0.063 0 0  0.064 0 0  0.065 0 0  0.066 0 0  0.067 0 0  0.068 0 0  0.06900000000000001 0 0  0.07000000000000001 0 0  0.07099999999999999 0 0  0.07199999999999999 0 0  0.073 0 0  0.074 0 0  0.075 0 0  0.076 0 0  0.077 0 0  0.078 0 0  0.079 0 0  0.08 0 0  0.081 0 0  0.082 0 0  0.083 0 0  0.08400000000000001 0 0  0.08500000000000001 0 0  0.08599999999999999 0 0  0.08699999999999999 0 0  0.08799999999999999 0 0  0.089 0 0  0.09 0 0  0.091 0 0  0.092 0 0  0.093 0 0  0.094 0 0  0.095 0 0  0.096 0 0  0.097 0 0  0.098 0 0  0.099 0 0  0.1 0 0  0.101 0 0  0.102 0 0  0.103 0 0  0.104 0 0  0.105 0 0  0.106 0 0  0.107 0 0  0.108 0 0  0.109 0 0  0.11 0 0  0.111 0 0  0.112 0 0  0.113 0 0  0.114 0 0  0.115 0 0  0.116 0 0  0.117 0 0  0.118 0 0  0.119 0 0  0.12 0 0  0.121 0 0  0.122 0 0  0.123 0 0  0.124 0 0  0.125 0 0  0.126 0 0  0.127 0 0  0.128 0 0  0.129 0 0  0.13 0 0  0.131 0 0  0.132 0 0  0.133 0 0  0.134 0 0  0.135 0 0  0.136 0 0  0.137 0 0  0.138 0 0  0.139 0 0  0.14 0 0  0.141 0 0  0.142 0 0  0.143 0 0  0.144 0 0  0.145 0 0  0.146 0 0  0.147 0 0  0.148 0 0  0.149 0 0  0.15 0 0  0.151 0 0  0.152 0 0  0.153 0 0  0.154 0 0  0.155 0 0  0.156 0 0  0.157 0 0  0.158 0 0  0.159 0 0  0.16 0 0  0.161 0 0  0.162 0 0  0.163 0 0  0.164 0 0  0.165 0 0  0.166 0 0  0.167 0 0  0.168 0 0  0.169 0 0  0.17 0 0  0.171 0 0  0.172 0 0  0.173 0 0  0.174 0 0  0.175 0 0  0.176 0 0  0.177 0 0  0.178 0 0  0.179 0 0  0.18 0 0  0.181 0 0  0.182 0 0  0.183 0 0  0.184 0 0  0.185 0 0  0.186 0 0  0.187 0 0  0.188 0 0  0.189 0 0  0.19 0 0  0.191 0 0  0.192 0 0  0.193 0 0  0.194 0 0  0.195 0 0  0.196 0 0  0.197 0 0  0.198 0 0  0.199 0 0  0.2 0 0  0.201 0 0  0.202 0 0  0.203 0 0  0.204 0 0  0.205 0 0  0.206 0 0  0.207 0 0  0.208 0 0  0.209 0 0  0.21 0 0  0.211 0 0  0.212 0 0  0.213 0 0  0.214 0 0  0.215 0 0  0.216 0 0  0.217 0 0  0.218 0 0  0.219 0 0  0.22 0 0  0.221 0 0  0.222 0 0  0.223 0 0  0.224 0 0  0.225 0 0  0.226 0 0  0.227 0 0  0.228 0 0  0.229 0 0  0.23 0 0  0.231 0 0  0.232 0 0  0.233 0 0  0.234 0 0  0.235 0 0  0.236 0 0  0.237 0 0  0.238 0 0  0.239 0 0  0.24 0 0  0.241 0 0  0.242 0 0  0.243 0 0  0.244 0 0  0.245 0 0  0.246 0 0  0.247 0 0  0.248 0 0  0.249 0 0  0.25 0 0  0.251 0 0  0.252 0 0  0.253 0 0  0.254 0 0  0.255 0 0  0.256 0 0  0.257 0 0  0.258 0 0  0.259 0 0  0.26 0 0  0.261 0 0  0.262 0 0  0.263 0 0  0.264 0 0  0.265 0 0  0.266 0 0  0.267 0 0  0.268 0 0  0.269 0 0  0.27 0 0  0.271 0 0  0.272 0 0  0.273 0 0  0.274 0 0  0.275 0 0  0.276 0 0  0.277 0 0  0.278 0 0  0.279 0 0  0.28 0 0  0.281 0 0  0.282 0 0  0.283 0 0  0.284 0 0  0.285 0 0  0.286 0 0  0.287 0 0  0.288 0 0  0.289 0 0  0.29 0 0  0.291 0 0  0.292 0 0  0.293 0 0  0.294 0 0  0.295 0 0  0.296 0 0  0.297 0 0  0.298 0 0  0.299 0 0  0.3 0 0  0.301 0 0  0.302 0 0  0.303 0 0  0.304 0 0  0.305 0 0  0.306 0 0  0.307 0 0  0.308 0 0  0.309 0 0  0.31 0 0  0.311 0 0  0.312 0 0  0.313 0 0  0.314 0 0  0.315 0 0  0.316 0 0  0.317 0 0  0.318 0 0  0.319 0 0  0.32 0 0  0.321 0 0  0.322 0 0  0.323 0 0  0.324 0 0  0.325 0 0  0.326 0 0  0.327 0 0  0.328 0 0  0.329 0 0  0.33 0 0  0.331 0 0  0.332 0 0  0.333 0 0  0.334 0 0  0.335 0 0  0.336 0 0  0.337 0 0  0.338 0 0  0.339 0 0  0.34 0 0  0.341 0 0  0.342 0 0  0.343 0 0  0.344 0 0  0.345 0 0  0.346 0 0  0.347 0 0  0.348 0 0  0.349 0 0  0.35 0 0  0.351 0 0  0.352 0 0  0.353 0 0  0.354 0 0  0.355 0 0  0.356 0 0  0.357 0 0  0.358 0 0  0.359 0 0  0.36 0 0  0.361 0 0  0.362 0 0  0.363 0 0  0.364 0 0  0.365 0 0  0.366 0 0  0.367 0 0  0.368 0 0  0.369 0 0  0.37 0 0  0.371 0 0  0.372 0 0  0.373 0 0  0.374 0 0  0.375 0 0  0.376 0 0  0.377 0 0  0.378 0 0  0.379 0 0  0.38 0 0  0.381 0 0  0.382 0 0  0.383 0 0  0.384 0 0  0.385 0 0  0.386 0 0  0.387 0 0  0.388 0 0  0.389 0 0  0.39 0 0  0.391 0 0  0.392 0 0  0.393 0 0  0.394 0 0  0.395 0 0  0.396 0 0  0.397 0 0  0.398 0 0  0.399 0 0  0.4 0 0  0.401 0 0  0.402 0 0  0.403 0 0  0.404 0 0  0.405 0 0  0.406 0 0  0.407 0 0  0.408 0 0  0.409 0 0  0.41 0 0  0.411 0 0  0.412 0 0  0.413 0 0  0.414 0 0  0.415 0 0  0.416 0 0  0.417 0 0  0.418 0 0  0.419 0 0  0.42 0 0  0.421 0 0  0.422 0 0  0.423 0 0  0.424 0 0  0.425 0 0  0.426 0 0  0.427 0 0  0.428 0 0  0.429 0 0  0.43 0 0  0.431 0 0  0.432 0 0  0.433 0 0  0.434 0 0  0.435 0 0  0.436 0 0  0.437 0 0  0.438 0 0  0.439 0 0  0.44 0 0  0.441 0 0  0.442 0 0  0.443 0 0  0.444 0 0  0.445 0 0  0.446 0 0  0.447 0 0  0.448 0 0  0.449 0 0  0.45 0 0  0.451 0 0  0.452 0 0  0.453 0 0  0.454 0 0  0.455 0 0  0.456 0 0  0.457 0 0  0.458 0 0  0.459 0 0  0.46 0 0  0.461 0 0  0.462 0 0  0.463 0 0  0.464 0 0  0.465 0 0  0.466 0 0  0.467 0 0  0.468 0 0  0.469 0 0  0.47 0 0  0.471 0 0  0.472 0 0  0.473 0 0  0.474 0 0  0.475 0 0  0.476 0 0  0.477 0 0  0.478 0 0  0.479 0 0  0.48 0 0  0.481 0 0  0.482 0 0  0.483 0 0  0.484 0 0  0.485 0 0  0.486 0 0  0.487 0 0  0.488 0 0  0.489 0 0  0.49 0 0  0.491 0 0  0.492 0 0  0.493 0 0  0.494 0 0  0.495 0 0  0.496 0 0  0.497 0 0  0.498 0 0  0.499 0 0  0.5 0 0  0.501 0 0  0.502 0 0  0.503 0 0  0.504 0 0  0.505 0 0  0.506 0 0  0.507 0 0  0.508 0 0  0.509 0 0  0.51 0 0  0.511 0 0  0.512 0 0  0.513 0 0  0.514 0 0  0.515 0 0  0.516 0 0  0.517 0 0  0.518 0 0  0.519 0 0  0.52 0 0  0.521 0 0  0.522 0 0  0.523 0 0  0.524 0 0  0.525 0 0  0.526 0 0  0.527 0 0  0.528 0 0  0.529 0 0  0.53 0 0  0.531 0 0  0.532 0 0  0.533 0 0  0.534 0 0  0.535 0 0  0.536 0 0  0.537 0 0  0.538 0 0  0.539 0 0  0.54 0 0  0.541 0 0  0.542 0 0  0.543 0 0  0.544 0 0  0.545 0 0  0.546 0 0  0.547 0 0  0.548 0 0  0.549 0 0  0.55 0 0  0.551 0 0  0.552 0 0  0.553 0 0  0.554 0 0  0.555 0 0  0.556 0 0  0.5570000000000001 0 0  0.5580000000000001 0 0  0.5590000000000001 0 0  0.5600000000000001 0 0  0.5610000000000001 0 0  0.5620000000000001 0 0  0.5629999999999999 0 0  0.5639999999999999 0 0  0.5649999999999999 0 0  0.5659999999999999 0 0  0.5669999999999999 0 0  0.5679999999999999 0 0  0.569 0 0  0.57 0 0  0.571 0 0  0.572 0 0  0.573 0 0  0.574 0 0  0.575 0 0  0.576 0 0  0.577 0 0  0.578 0 0  0.579 0 0  0.58 0 0  0.581 0 0  0.582 0 0  0.583 0 0  0.584 0 0  0.585 0 0  0.586 0 0  0.587 0 0  0.588 0 0  0.589 0 0  0.59 0 0  0.591 0 0  0.592 0 0  0.593 0 0  0.594 0 0  0.595 0 0  0.596 0 0  0.597 0 0  0.598 0 0  0.599 0 0  0.6 0 0  0.601 0 0  0.602 0 0  0.603 0 0  0.604 0 0  0.605 0 0  0.606 0 0  0.607 0 0  0.608 0 0  0.609 0 0  0.61 0 0  0.611 0 0  0.612 0 0  0.613 0 0  0.614 0 0  0.615 0 0  0.616 0 0  0.617 0 0  0.618 0 0  0.619 0 0  0.62 0 0  0.621 0 0  0.622 0 0  0.623 0 0  0.624 0 0  0.625 0 0  0.626 0 0  0.627 0 0  0.628 0 0  0.629 0 0  0.63 0 0  0.631 0 0  0.632 0 0  0.633 0 0  0.634 0 0  0.635 0 0  0.636 0 0  0.637 0 0  0.638 0 0  0.639 0 0  0.64 0 0  0.641 0 0  0.642 0 0  0.643 0 0  0.644 0 0  0.645 0 0  0.646 0 0  0.647 0 0  0.648 0 0  0.649 0 0  0.65 0 0  0.651 0 0  0.652 0 0  0.653 0 0  0.654 0 0  0.655 0 0  0.656 0 0  0.657 0 0  0.658 0 0  0.659 0 0  0.66 0 0  0.661 0 0  0.662 0 0  0.663 0 0  0.664 0 0  0.665 0 0  0.666 0 0  0.667 0 0  0.668 0 0  0.669 0 0  0.67 0 0  0.671 0 0  0.672 0 0  0.673 0 0  0.674 0 0  0.675 0 0  0.676 0 0  0.677 0 0  0.678 0 0  0.679 0 0  0.68 0 0  0.681 0 0  0.6820000000000001 0 0  0.6830000000000001 0 0  0.6840000000000001 0 0  0.6850000000000001 0 0  0.6860000000000001 0 0  0.6870000000000001 0 0  0.6879999999999999 0 0  0.6889999999999999 0 0  0.6899999999999999 0 0  0.6909999999999999 0 0  0.6919999999999999 0 0  0.6929999999999999 0 0  0.694 0 0  0.695 0 0  0.696 0 0  0.697 0 0  0.698 0 0  0.699 0 0  0.7 0 0  0.701 0 0  0.702 0 0  0.703 0 0  0.704 0 0  0.705 0 0  0.706 0 0  0.707 0 0  0.708 0 0  0.709 0 0  0.71 0 0  0.711 0 0  0.712 0 0  0.713 0 0  0.714 0 0  0.715 0 0  0.716 0 0  0.717 0 0  0.718 0 0  0.719 0 0  0.72 0 0  0.721 0 0  0.722 0 0  0.723 0 0  0.724 0 0  0.725 0 0  0.726 0 0  0.727 0 0  0.728 0 0  0.729 0 0  0.73 0 0  0.731 0 0  0.732 0 0  0.733 0 0  0.734 0 0  0.735 0 0  0.736 0 0  0.737 0 0  0.738 0 0  0.739 0 0  0.74 0 0  0.741 0 0  0.742 0 0  0.743 0 0  0.744 0 0  0.745 0 0  0.746 0 0  0.747 0 0  0.748 0 0  0.749 0 0  0.75 0 0  0.751 0 0  0.752 0 0  0.753 0 0  0.754 0 0  0.755 0 0  0.756 0 0  0.757 0 0  0.758 0 0  0.759 0 0  0.76 0 0  0.761 0 0  0.762 0 0  0.763 0 0  0.764 0 0  0.765 0 0  0.766 0 0  0.767 0 0  0.768 0 0  0.769 0 0  0.77 0 0  0.771 0 0  0.772 0 0  0.773 0 0  0.774 0 0  0.775 0 0  0.776 0 0  0.777 0 0  0.778 0 0  0.779 0 0  0.78 0 0  0.781 0 0  0.782 0 0  0.783 0 0  0.784 0 0  0.785 0 0  0.786 0 0  0.787 0 0  0.788 0 0  0.789 0 0  0.79 0 0  0.791 0 0  0.792 0 0  0.793 0 0  0.794 0 0  0.795 0 0  0.796 0 0  0.797 0 0  0.798 0 0  0.799 0 0  0.8 0 0  0.801 0 0  0.802 0 0  0.803 0 0  0.804 0 0  0.805 0 0  0.806 0 0  0.8070000000000001 0 0  0.8080000000000001 0 0  0.8090000000000001 0 0  0.8100000000000001 0 0  0.8110000000000001 0 0  0.8120000000000001 0 0  0.8129999999999999 0 0  0.8139999999999999 0 0  0.8149999999999999 0 0  0.8159999999999999 0 0  0.8169999999999999 0 0  0.8179999999999999 0 0  0.819 0 0  0.82 0 0  0.821 0 0  0.822 0 0  0.823 0 0  0.824 0 0  0.825 0 0  0.826 0 0  0.827 0 0  0.828 0 0  0.829 0 0  0.83 0 0  0.831 0 0  0.832 0 0  0.833 0 0  0.834 0 0  0.835 0 0  0.836 0 0  0.837 0 0  0.838 0 0  0.839 0 0  0.84 0 0  0.841 0 0  0
[...]
<PointData  Scalars="f_20-0"> 
<DataArray  type="Float64"  Name="f_20-0"  format="ascii">2.0000000000000004e+00  2.0000000000000000e+00  2.0000000000000004e+00  2.0000000000000000e+00  2.0000000000000000e+00  2.0000000000000004e+00  2.0000000000000000e+00  2.0000000000000004e+00  2.0000000000000004e+00  2.0000000000000004e+00  2.0000000000000004e+00  2.0000000000000004e+00  2.0000000000000004e+00  2.0000000000000004e+00  2.0000000000000004e+00  2.0000000000000009e+00  2.0000000000000018e+00  2.0000000000000022e+00  2.0000000000000036e+00  2.0000000000000053e+00  2.0000000000000067e+00  2.0000000000000084e+00  2.0000000000000107e+00  2.0000000000000142e+00  2.0000000000000182e+00  2.0000000000000222e+00  2.0000000000000271e+00  2.0000000000000329e+00  2.0000000000000395e+00  2.0000000000000475e+00  2.0000000000000577e+00  2.0000000000000693e+00  2.0000000000000835e+00  2.0000000000000999e+00  2.0000000000001199e+00  2.0000000000001434e+00  2.0000000000001719e+00  2.0000000000002065e+00  2.0000000000002478e+00  2.0000000000002962e+00  2.0000000000003544e+00  2.0000000000004241e+00  2.0000000000005067e+00  2.0000000000006057e+00  2.0000000000007234e+00  2.0000000000008629e+00  2.0000000000010298e+00  2.0000000000012288e+00  2.0000000000014651e+00  2.0000000000017466e+00  2.0000000000020801e+00  2.0000000000024758e+00  2.0000000000029461e+00  2.0000000000035048e+00  2.0000000000041682e+00  2.0000000000049556e+00  2.0000000000058886e+00  2.0000000000069944e+00  2.0000000000083045e+00  2.0000000000098566e+00  2.0000000000116933e+00  2.0000000000138680e+00  2.0000000000164393e+00  2.0000000000194804e+00  2.0000000000230749e+00  2.0000000000273208e+00  2.0000000000323355e+00  2.0000000000382561e+00  2.0000000000452429e+00  2.0000000000534843e+00  2.0000000000632014e+00  2.0000000000746545e+00  2.0000000000881482e+00  2.0000000001040390e+00  2.0000000001227458e+00  2.0000000001447575e+00  2.0000000001706488e+00  2.0000000002010911e+00  2.0000000002368701e+00  2.0000000002789027e+00  2.0000000003282632e+00  2.0000000003862044e+00  2.0000000004541918e+00  2.0000000005339338e+00  2.0000000006274248e+00  2.0000000007369905e+00  2.0000000008653429e+00  2.0000000010156422e+00  2.0000000011915673e+00  2.0000000013974044e+00  2.0000000016381412e+00  2.0000000019195792e+00  2.0000000022484650e+00  2.0000000026326408e+00  2.0000000030812184e+00  2.0000000036047783e+00  2.0000000042156025e+00  2.0000000049279443e+00  2.0000000057583347e+00  2.0000000067259376e+00  2.0000000078529623e+00  2.0000000091651340e+00  2.0000000106922387e+00  2.0000000124687505e+00  2.0000000145345496e+00  2.0000000169357519e+00  2.0000000197256598e+00  2.0000000229658568e+00  2.0000000267274611e+00  2.0000000310925703e+00  2.0000000361559094e+00  2.0000000420267283e+00  2.0000000488309757e+00  2.0000000567137874e+00  2.0000000658423316e+00  2.0000000764090751e+00  2.0000000886355140e+00  2.0000001027764376e+00  2.0000001191248038e+00  2.0000001380173114e+00  2.0000001598407597e+00  2.0000001850393057e+00  2.0000002141227449e+00  2.0000002476759540e+00  2.0000002863696489e+00  2.0000003309726448e+00  2.0000003823658061e+00  2.0000004415579355e+00  2.0000005097038343e+00  2.0000005881248453e+00  2.0000006783321918e+00  2.0000007820534904e+00  2.0000009012628497e+00  2.0000010382150246e+00  2.0000011954841517e+00  2.0000013760076651e+00  2.0000015831360511e+00  2.0000018206891998e+00  2.0000020930201892e+00  2.0000024050874536e+00  2.0000027625363894e+00  2.0000031717915929e+00  2.0000036401610606e+00  2.0000041759538436e+00  2.0000047886128267e+00  2.0000054888644998e+00  2.0000062888878105e+00  2.0000072025044329e+00  2.0000082453930537e+00  2.0000094353305893e+00  2.0000107924635717e+00  2.0000123396133200e+00  2.0000141026189207e+00  2.0000161107225041e+00  2.0000183970017962e+00  2.0000209988554878e+00  2.0000239585475876e+00  2.0000273238175859e+00  2.0000311485640183e+00  2.0000354936098437e+00  2.0000404275589534e+00  2.0000460277541281e+00  2.0000523813478654e+00  2.0000595864987005e+00  2.0000677537069600e+00  2.0000770073053591e+00  2.0000874871214234e+00  2.0000993503304554e+00  2.0001127735196751e+00  2.0001279549862270e+00  2.0001451172940126e+00  2.0001645101167580e+00  2.0001864133974201e+00  2.0002111408569214e+00  2.0002390438883739e+00  2.0002705158763670e+00  2.0003059969845718e+00  2.0003459794589200e+00  2.0003910134979117e+00  2.0004417137462167e+00  2.0004987664727105e+00  2.0005629374993843e+00  2.0006350809532600e+00  2.0007161489194836e+00  2.0008072020801779e+00  2.0009094214304683e+00  2.0010241211702255e+00  2.0011527628776444e+00  2.0012969710785988e+00  2.0014585503339455e+00  2.0016395039753414e+00  2.0018420546288342e+00  2.0020686666742518e+00  2.0023220707972320e+00  2.0026052907994778e+00  2.0029216728413068e+00  2.0032749172986200e+00  2.0036691134238214e+00  2.0041087770066803e+00  2.0045988912363200e+00  2.0051449509690458e+00  2.0057530106081036e+00  2.0064297358001788e+00  2.0071824591487557e+00  2.0080192401357646e+00  2.0089489294292147e+00  2.0099812377348356e+00  2.0111268093229775e+00  2.0123973003268492e+00  2.0138054618631331e+00  2.0153652279695580e+00  2.0170918082842912e+00  2.0190017853071853e+00  2.0211132159808614e+00  2.0234457372082546e+00  2.0260206747803333e+00  2.0288611550210800e+00  2.0319922182644530e+00  2.0354409330581071e+00  2.0392365097397804e+00  2.0434104117536411e+00  2.0479964627657568e+00  2.0530309473014006e+00  2.0585527022650929e+00  2.0646031963218450e+00  2.0712265937222467e+00  2.0784697987548131e+00  2.0863824766196939e+00  2.0950170461554194e+00  2.1044286395357243e+00  2.1146750238116319e+00  2.1258164790338125e+00  2.1379156276841438e+00  2.1510372103081825e+00  2.1652478026079343e+00  2.1806154698617961e+00  2.1972093554171739e+00  2.2150992011754340e+00  2.2343547994723818e+00  2.2550453775493882e+00  2.2772389178912951e+00  2.3010014200357776e+00  2.3263961119691041e+00  2.3534826218240705e+00  2.3823161231722683e+00  2.4129464696195972e+00  2.4454173365225662e+00  2.4797653892907445e+00  2.5160194987824815e+00  2.5542000246115530e+00  2.5943181866698550e+00  2.6363755437880565e+00  2.6803635962080854e+00  2.7262635254915071e+00  2.7740460817560049e+00  2.8236716238881017e+00  2.8750903138323620e+00  2.9282424614369789e+00  2.9830590118791713e+00  3.0394621636240555e+00  3.0973661013800515e+00  3.1566778257513097e+00  3.2172980593492397e+00  3.2791222080513664e+00  3.3420413558721842e+00  3.4059432724753882e+00  3.4707134136089639e+00  3.5362358965563936e+00  3.6023944349260817e+00  3.6690732196010427e+00  3.7361577353025814e+00  3.8035355048599575e+00  3.8710967558173355e+00  3.9387350063663606e+00  4.0063475697073212e+00  4.0738359777758193e+00  4.1411063268066783e+00  4.2080695484406316e+00  4.2746416110234717e+00  4.3407436564229354e+00  4.4063020781233453e+00  4.4712485465832312e+00  4.5355199878897476e+00  4.5990585216479989e+00  4.6618113638338965e+00  4.7237307000442330e+00  4.7847735342214373e+00  4.8449015175348515e+00  4.9040807616829554e+00  4.9622816404562311e+00  5.0194785829802120e+00  5.0756498616511196e+00  5.1307773773892125e+00  5.1848464444718214e+00  5.2378455768719299e+00  5.2897662777206422e+00  5.3406028332332891e+00  5.3903521121890385e+00  5.4390133718315488e+00  5.4865880708622408e+00  5.5330796900263062e+00  5.5784935606428991e+00  5.6228367013030489e+00  5.6661176628498078e+00  5.7083463816631017e+00  5.7495340411947966e+00  5.7896929416359839e+00  5.8288363775468044e+00  5.8669785232377087e+00  5.9041343256586876e+00  5.9403194045283216e+00  5.9755499594165471e+00  6.0098426834826562e+00  6.0432146835625726e+00  6.0756834062959406e+00  6.1072665699833930e+00  6.1379821018670624e+00  6.1678480805322220e+00  6.1968826831346693e+00  6.2251041371665599e+00  6.2525306764826585e+00  6.2791805013189563e+00  6.3050717420462847e+00  6.3302224264125151e+00  6.3546504500381804e+00  6.3783735499416663e+00  6.4014092808813574e+00  6.4237749943132716e+00  6.4454878197736756e+00  6.4665646485068011e+00  6.4870221191681630e+00  6.5068766054439928e+00  6.5261442054369532e+00  6.5448407326775264e+00  6.5629817086293496e+00  6.5805823565652215e+00  6.5976575966985358e+00  6.6142220424625382e+00  6.6302899978370826e+00  6.6458754556293762e+00  6.6609920966217073e+00  6.6756532895052674e+00  6.6898720915249275e+00  6.7036612497652444e+00  6.7170332030130897e+00  6.7300000841370489e+00  6.7425737229282152e+00  6.7547656493512740e+00  6.7665870971585838e+00  6.7780490078237561e+00  6.7891620347545976e+00  6.7999365477485068e+00  6.8103826376564038e+00  6.8205101212240908e+00  6.8303285460824732e+00  6.8398471958605418e+00  6.8490750953972546e+00  6.8580210160305279e+00  6.8666934809434830e+00  6.8751007705499401e+00  6.8832509279027496e+00  6.8911517641101501e+00  6.8988108637467658e+00  6.9062355902471539e+00  6.9134330912710720e+00  6.9204103040307405e+00  6.9271739605714284e+00  6.9337305929976800e+00  6.9400865386383188e+00  6.9462479451442576e+00  6.9522207755138652e+00  6.9580108130412990e+00  6.9636236661839064e+00  6.9690647733453392e+00  6.9743394075715459e+00  6.9794526811573432e+00  6.9844095501616588e+00  6.9892148188299812e+00  6.9938731439228894e+00  6.9983890389499086e+00  7.0027668783081953e+00  7.0070109013258834e+00  7.0111252162101110e+00  7.0151138039000447e+00  7.0189805218253500e+00  7.0227291075707727e+00  7.0263631824476782e+00  7.0298862549734720e+00  7.0333017242600402e+00  7.0366128833123733e+00  7.0398229222387103e+00  7.0429349313735710e+00  7.0459519043151486e+00  7.0488767408785789e+00  7.0517122499666840e+00  7.0544611523597807e+00  7.0571260834262448e+00  7.0597095957554723e+00  7.0622141617149765e+00  7.0646421759333027e+00  7.0669959577105077e+00  7.0692777533579028e+00  7.0714897384687614e+00  7.0736340201217400e+00  7.0757126390186498e+00  7.0777275715582775e+00  7.0796807318478940e+00  7.0815739736540930e+00  7.0834090922945263e+00  7.0851878264721426e+00  7.0869118600534735e+00  7.0885828237924633e+00  7.0902022970013876e+00  7.0917718091702922e+00  7.0932928415364618e+00  7.0947668286053478e+00  7.0961951596243971e+00  7.0975791800112447e+00  7.0989201927377099e+00  7.1002194596710693e+00  7.1014782028740768e+00  7.1026976058652442e+00  7.1038788148409200e+00  7.1050229398607003e+00  7.1061310559978130e+00  7.1072042044560444e+00  7.1082433936549032e+00  7.1092496002846328e+00  7.1102237703327846e+00  7.1111668200839899e+00  7.1120796370945527e+00  7.1129630811434668e+00  7.1138179851613526e+00  7.1146451561387254e+00  7.1154453760148959e+00  7.1162194025486132e+00  7.1169679701714221e+00  7.1176917908244555e+00  7.1183915547791843e+00  7.1190679314423813e+00  7.1197215701452983e+00  7.1203531009167484e+00  7.1209631352395819e+00  7.1215522667897053e+00  7.1221210721565651e+00  7.1226701115438189e+00  7.1231999294486608e+00  7.1237110553181697e+00  7.1242040041808927e+00  7.1246792772518237e+00  7.1251373625089505e+00  7.1255787352395661e+00  7.1260038585546628e+00  7.1264131838698912e+00  7.1268071513517723e+00  7.1271861903281302e+00  7.1275507196620014e+00  7.1279011480886254e+00  7.1282378745154693e+00  7.1285612882856277e+00  7.1288717694052908e+00  7.1291696887363649e+00  7.1294554081556569e+00  7.1297292806823584e+00  7.1299916505758647e+00  7.1302428534061804e+00  7.1304832160993783e+00  7.1307130569607082e+00  7.1309326856780419e+00  7.1311424033083908e+00  7.1313425022501811e+00  7.1315332662039497e+00  7.1317149701239853e+00  7.1318878801632994e+00  7.1320522536141269e+00  7.1322083388459649e+00  7.1323563752429200e+00  7.1324965931418784e+00  7.1326292137728373e+00  7.1327544492024124e+00  7.1328725022813551e+00  7.1329835665966890e+00  7.1330878264288504e+00  7.1331854567140356e+00  7.1332766230118194e+00  7.1333614814779152e+00  7.1334401788418793e+00  7.1335128523894280e+00  7.1335796299489740e+00  7.1336406298819508e+00  7.1336959610764206e+00  7.1337457229434804e+00  7.1337900054159578e+00  7.1338288889489103e+00  7.1338624445214345e+00  7.1338907336393884e+00  7.1339138083385842e+00  7.1339317111881231e+00  7.1339444752935375e+00  7.1339521242995207e+00  7.1339546723920169e+00  7.1339521242995207e+00  7.1339444752935375e+00  7.1339317111881231e+00  7.1339138083385842e+00  7.1338907336393884e+00  7.1338624445214345e+00  7.1338288889489103e+00  7.1337900054159578e+00  7.1337457229434804e+00  7.1336959610764197e+00  7.1336406298819499e+00  7.1335796299489722e+00  7.1335128523894280e+00  7.1334401788418793e+00  7.1333614814779152e+00  7.1332766230118194e+00  7.1331854567140356e+00  7.1330878264288504e+00  7.1329835665966890e+00  7.1328725022813551e+00  7.1327544492024124e+00  7.1326292137728373e+00  7.1324965931418784e+00  7.1323563752429200e+00  7.1322083388459667e+00  7.1320522536141286e+00  7.1318878801633012e+00  7.1317149701239853e+00  7.1315332662039497e+00  7.1313425022501811e+00  7.1311424033083908e+00  7.1309326856780419e+00  7.1307130569607091e+00  7.1304832160993801e+00  7.1302428534061848e+00  7.1299916505758674e+00  7.1297292806823602e+00  7.1294554081556578e+00  7.1291696887363640e+00  7.1288717694052899e+00  7.1285612882856269e+00  7.1282378745154702e+00  7.1279011480886254e+00  7.1275507196620014e+00  7.1271861903281302e+00  7.1268071513517723e+00  7.1264131838698921e+00  7.1260038585546628e+00  7.1255787352395661e+00  7.1251373625089522e+00  7.1246792772518255e+00  7.1242040041808945e+00  7.1237110553181724e+00  7.1231999294486616e+00  7.1226701115438198e+00  7.1221210721565660e+00  7.1215522667897053e+00  7.1209631352395819e+00  7.1203531009167484e+00  7.1197215701452983e+00  7.1190679314423813e+00  7.1183915547791843e+00  7.1176917908244555e+00  7.1169679701714221e+00  7.1162194025486132e+00  7.1154453760148959e+00  7.1146451561387254e+00  7.1138179851613526e+00  7.1129630811434668e+00  7.1120796370945527e+00  7.1111668200839899e+00  7.1102237703327855e+00  7.1092496002846346e+00  7.1082433936549059e+00  7.1072042044560471e+00  7.1061310559978139e+00  7.1050229398607021e+00  7.1038788148409209e+00  7.1026976058652451e+00  7.1014782028740768e+00  7.1002194596710693e+00  7.0989201927377099e+00  7.0975791800112455e+00  7.0961951596243988e+00  7.0947668286053505e+00  7.0932928415364627e+00  7.0917718091702922e+00  7.0902022970013867e+00  7.0885828237924624e+00  7.0869118600534717e+00  7.0851878264721408e+00  7.0834090922945245e+00  7.0815739736540930e+00  7.0796807318478940e+00  7.0777275715582775e+00  7.0757126390186498e+00  7.0736340201217400e+00  7.0714897384687614e+00  7.0692777533579028e+00  7.0669959577105077e+00  7.0646421759333027e+00  7.0622141617149765e+00  7.0597095957554723e+00  7.0571260834262448e+00  7.0544611523597807e+00  7.0517122499666831e+00  7.0488767408785789e+00  7.0459519043151495e+00  7.0429349313735736e+00  7.0398229222387121e+00  7.0366128833123742e+00  7.0333017242600393e+00  7.0298862549734720e+00  7.0263631824476773e+00  7.0227291075707736e+00  7.0189805218253509e+00  7.0151138039000482e+00  7.0111252162101136e+00  7.0070109013258852e+00  7.0027668783081971e+00  6.9983890389499086e+00  6.9938731439228894e+00  6.9892148188299812e+00  6.9844095501616588e+00  6.9794526811573423e+00  6.9743394075715450e+00  6.9690647733453375e+00  6.9636236661839046e+00  6.9580108130412963e+00  6.9522207755138643e+00  6.9462479451442594e+00  6.9400865386383188e+00  6.9337305929976809e+00  6.9271739605714284e+00  6.9204103040307405e+00  6.9134330912710737e+00  6.9062355902471566e+00  6.8988108637467667e+00  6.8911517641101501e+00  6.8832509279027496e+00  6.8751007705499401e+00  6.8666934809434830e+00  6.8580210160305279e+00  6.8490750953972546e+00  6.8398471958605418e+00  6.8303285460824732e+00  6.8205101212240908e+00  6.8103826376564038e+00  6.7999365477485068e+00  6.7891620347545985e+00  6.7780490078237579e+00  6.7665870971585829e+00  6.7547656493512740e+00  6.7425737229282134e+00  6.7300000841370471e+00  6.7170332030130897e+00  6.7036612497652426e+00  6.6898720915249257e+00  6.6756532895052674e+00  6.6609920966217073e+00  6.6458754556293771e+00  6.6302899978370844e+00  6.6142220424625400e+00  6.5976575966985367e+00  6.5805823565652224e+00  6.5629817086293496e+00  6.5448407326775273e+00  6.5261442054369549e+00  6.5068766054439937e+00  6.4870221191681630e+00  6.4665646485068011e+00  6.4454878197736756e+00  6.4237749943132716e+00  6.4014092808813574e+00  6.3783735499416663e+00  6.3546504500381804e+00  6.3302224264125160e+00  6.3050717420462865e+00  6.2791805013189581e+00  6.2525306764826594e+00  6.2251041371665616e+00  6.1968826831346702e+00  6.1678480805322220e+00  6.1379821018670624e+00  6.1072665699833939e+00  6.0756834062959424e+00  6.0432146835625753e+00  6.0098426834826606e+00  5.9755499594165542e+00  5.9403194045283279e+00  5.9041343256586929e+00  5.8669785232377141e+00  5.8288363775468088e+00  5.7896929416359892e+00  5.7495340411948019e+00  5.7083463816631088e+00  5.6661176628498149e+00  5.6228367013030560e+00  5.5784935606429071e+00  5.5330796900263133e+00  5.4865880708622479e+00  5.4390133718315559e+00  5.3903521121890448e+00  5.3406028332332935e+00  5.2897662777206467e+00  5.2378455768719370e+00  5.1848464444718285e+00  5.1307773773892205e+00  5.0756498616511285e+00  5.0194785829802218e+00  4.9622816404562409e+00  4.9040807616829634e+00  4.8449015175348613e+00  4.7847735342214461e+00  4.7237307000442419e+00  4.6618113638339054e+00  4.5990585216480078e+00  4.5355199878897574e+00  4.4712485465832366e+00  4.4063020781233506e+00  4.3407436564229407e+00  4.2746416110234771e+00  4.2080695484406370e+00  4.1411063268066828e+00  4.0738359777758237e+00  4.0063475697073265e+00  3.9387350063663660e+00  3.8710967558173408e+00  3.8035355048599624e+00  3.7361577353025863e+00  3.6690732196010485e+00  3.6023944349260866e+00  3.5362358965563985e+00  3.4707134136089679e+00  3.4059432724753926e+00  3.3420413558721891e+00  3.2791222080513704e+00  3.2172980593492442e+00  3.1566778257513142e+00  3.0973661013800560e+00  3.0394621636240591e+00  2.9830590118791744e+00  2.9282424614369824e+00  2.8750903138323660e+00  2.8236716238881057e+00  2.7740460817560080e+00  2.7262635254915102e+00  2.6803635962080881e+00  2.6363755437880592e+00  2.5943181866698573e+00  2.5542000246115562e+00  2.5160194987824842e+00  2.4797653892907472e+00  2.4454173365225680e+00  2.4129464696196004e+00  2.3823161231722700e+00  2.3534826218240714e+00  2.3263961119691046e+00  2.3010014200357785e+00  2.2772389178912955e+00  2.2550453775493886e+00  2.2343547994723831e+00  2.2150992011754354e+00  2.1972093554171748e+00  2.1806154698617966e+00  2.1652478026079343e+00  2.1510372103081830e+00  2.1379156276841438e+00  2.1258164790338125e+00  2.1146750238116319e+00  2.1044286395357243e+00  2.0950170461554194e+00  2.0863824766196939e+00  2.0784697987548131e+00  2.0712265937222467e+00  2.0646031963218454e+00  2.0585527022650929e+00  2.0530309473014001e+00  2.0479964627657563e+00  2.0434104117536407e+00  2.0392365097397809e+00  2.0354409330581085e+00  2.0319922182644539e+00  2.0288611550210809e+00  2.0260206747803333e+00  2.0234457372082537e+00  2.0211132159808605e+00  2.0190017853071853e+00  2.0170918082842912e+00  2.0153652279695575e+00  2.0138054618631327e+00  2.0123973003268487e+00  2.0111268093229775e+00  2.0099812377348352e+00  2.0089489294292138e+00  2.0080192401357637e+00  2.0071824591487544e+00  2.0064297358001779e+00  2.0057530106081023e+00  2.0051449509690435e+00  2.0045988912363186e+00  2.0041087770066794e+00  2.0036691134238205e+00  2.0032749172986191e+00  2.0029216728413060e+00  2.0026052907994774e+00  2.0023220707972320e+00  2.0020686666742518e+00  2.0018420546288338e+00  2.0016395039753410e+00  2.0014585503339455e+00  2.0012969710785984e+00  2.0011527628776449e+00  2.0010241211702269e+00  2.0009094214304697e+00  2.0008072020801797e+00  2.0007161489194849e+00  2.0006350809532614e+00  2.0005629374993852e+00  2.0004987664727110e+00  2.0004417137462176e+00  2.0003910134979117e+00  2.0003459794589200e+00  2.0003059969845718e+00  2.0002705158763670e+00  2.0002390438883739e+00  2.0002111408569214e+00  2.0001864133974201e+00  2.0001645101167