<?xml version="1.0"?>
<VTKFile type="UnstructuredGrid"  version="0.1"  >
<UnstructuredGrid>
<Piece  NumberOfPoints="1001" NumberOfCells="1000">
<Points>
<DataArray  type="Float64"  NumberOfComponents="3"  format="ascii">0 0 0  0.001 0 0  0.002 0 0  0.003 0 0  0.004 0 0  0.005 0 0  0.006 0 0  0.007 0 0  0.008 0 0  0.008999999999999999 0 0  0.01 0 0  0.011 0 0  0.012 0 0  0.013 0 0  0.014 0 0  0.015 0 0  0.016 0 0  0.017 0 0  0.018 0 0  0.019 0 0  0.02 0 0  0.021 0 0  0.022 0 0  0.023 0 0  0.024 0 0  0.025 0 0  0.026 0 0  0.027 0 0  0.028 0 0  0.029 0 0  0.03 0 0  0.031 0 0  0.032 0 0  0.033 0 0  0.034 0 0  0.035 0 0  0.036 0 0  0.037 0 0  0.038 0 0  0.039 0 0  0.04 0 0  0.041 0 0  0.042 0 0  0.043 0 0  0.044 0 0  0.045 0 0  0.046 0 0  0.047 0 0  0.048 0 0  0.049 0 0  0.05 0 0  0.051 0 0  0.052 0 0  0.053 0 0  0.054 0 0  0.055 0 0  0.056 0 0  0.057 0 0  0.058 0 0  0.059 0 0  0.06 0 0  0.061 0 0  0.062 0 0  0.063 0 0  0.064 0 0  0.065 0 0  0.066 0 0  0.067 0 0  0.068 0 0  0.06900000000000001 0 0  0.07000000000000001 0 0  0.07099999999999999 0 0  0.07199999999999999 0 0  0.073 0 0  0.074 0 0  0.075 0 0  0.076 0 0  0.077 0 0  0.078 0 0  0.079 0 0  0.08 0 0  0.081 0 0  0.082 0 0  0.083 0 0  0.08400000000000001 0 0  0.08500000000000001 0 0  0.08599999999999999 0 0  0.08699999999999999 0 0  0.08799999999999999 0 0  0.089 0 0  0.09 0 0  0.091 0 0  0.092 0 0  0.093 0 0  0.094 0 0  0.095 0 0  0.096 0 0  0.097 0 0  0.098 0 0  0.099 0 0  0.1 0 0  0.101 0 0  0.102 0 0  0.103 0 0  0.104 0 0  0.105 0 0  0.106 0 0  0.107 0 0  0.108 0 0  0.109 0 0  0.11 0 0  0.111 0 0  0.112 0 0  0.113 0 0  0.114 0 0  0.115 0 0  0.116 0 0  0.117 0 0  0.118 0 0  0.119 0 0  0.12 0 0  0.121 0 0  0.122 0 0  0.123 0 0  0.124 0 0  0.125 0 0  0.126 0 0  0.127 0 0  0.128 0 0  0.129 0 0  0.13 0 0  0.131 0 0  0.132 0 0  0.133 0 0  0.134 0 0  0.135 0 0  0.136 0 0  0.137 0 0  0.138 0 0  0.139 0 0  0.14 0 0  0.141 0 0  0.142 0 0  0.143 0 0  0.144 0 0  0.145 0 0  0.146 0 0  0.147 0 0  0.148 0 0  0.149 0 0  0.15 0 0  0.151 0 0  0.152 0 0  0.153 0 0  0.154 0 0  0.155 0 0  0.156 0 0  0.157 0 0  0.158 0 0  0.159 0 0  0.16 0 0  0.161 0 0  0.162 0 0  0.163 0 0  0.164 0 0  0.165 0 0  0.166 0 0  0.167 0 0  0.168 0 0  0.169 0 0  0.17 0 0  0.171 0 0  0.172 0 0  0.173 0 0  0.174 0 0  0.175 0 0  0.176 0 0  0.177 0 0  0.178 0 0  0.179 0 0  0.18 0 0  0.181 0 0  0.182 0 0  0.183 0 0  0.184 0 0  0.185 0 0  0.186 0 0  0.187 0 0  0.188 0 0  0.189 0 0  0.19 0 0  0.191 0 0  0.192 0 0  0.193 0 0  0.194 0 0  0.195 0 0  0.196 0 0  0.197 0 0  0.198 0 0  0.199 0 0  0.2 0 0  0.201 0 0  0.202 0 0  0.203 0 0  0.204 0 0  0.205 0 0  0.206 0 0  0.207 0 0  0.208 0 0  0.209 0 0  0.21 0 0  0.211 0 0  0.212 0 0  0.213 0 0  0.214 0 0  0.215 0 0  0.216 0 0  0.217 0 0  0.218 0 0  0.219 0 0  0.22 0 0  0.221 0 0  0.222 0 0  0.223 0 0  0.224 0 0  0.225 0 0  0.226 0 0  0.227 0 0  0.228 0 0  0.229 0 0  0.23 0 0  0.231 0 0  0.232 0 0  0.233 0 0  0.234 0 0  0.235 0 0  0.236 0 0  0.237 0 0  0.238 0 0  0.239 0 0  0.24 0 0  0.241 0 0  0.242 0 0  0.243 0 0  0.244 0 0  0.245 0 0  0.246 0 0  0.247 0 0  0.248 0 0  0.249 0 0  0.25 0 0  0.251 0 0  0.252 0 0  0.253 0 0  0.254 0 0  0.255 0 0  0.256 0 0  0.257 0 0  0.258 0 0  0.259 0 0  0.26 0 0  0.261 0 0  0.262 0 0  0.263 0 0  0.264 0 0  0.265 0 0  0.266 0 0  0.267 0 0  0.268 0 0  0.269 0 0  0.27 0 0  0.271 0 0  0.272 0 0  0.273 0 0  0.274 0 0  0.275 0 0  0.276 0 0  0.277 0 0  0.278 0 0  0.279 0 0  0.28 0 0  0.281 0 0  0.282 0 0  0.283 0 0  0.284 0 0  0.285 0 0  0.286 0 0  0.287 0 0  0.288 0 0  0.289 0 0  0.29 0 0  0.291 0 0  0.292 0 0  0.293 0 0  0.294 0 0  0.295 0 0  0.296 0 0  0.297 0 0  0.298 0 0  0.299 0 0  0.3 0 0  0.301 0 0  0.302 0 0  0.303 0 0  0.304 0 0  0.305 0 0  0.306 0 0  0.307 0 0  0.308 0 0  0.309 0 0  0.31 0 0  0.311 0 0  0.312 0 0  0.313 0 0  0.314 0 0  0.315 0 0  0.316 0 0  0.317 0 0  0.318 0 0  0.319 0 0  0.32 0 0  0.321 0 0  0.322 0 0  0.323 0 0  0.324 0 0  0.325 0 0  0.326 0 0  0.327 0 0  0.328 0 0  0.329 0 0  0.33 0 0  0.331 0 0  0.332 0 0  0.333 0 0  0.334 0 0  0.335 0 0  0.336 0 0  0.337 0 0  0.338 0 0  0.339 0 0  0.34 0 0  0.341 0 0  0.342 0 0  0.343 0 0  0.344 0 0  0.345 0 0  0.346 0 0  0.347 0 0  0.348 0 0  0.349 0 0  0.35 0 0  0.351 0 0  0.352 0 0  0.353 0 0  0.354 0 0  0.355 0 0  0.356 0 0  0.357 0 0  0.358 0 0  0.359 0 0  0.36 0 0  0.361 0 0  0.362 0 0  0.363 0 0  0.364 0 0  0.365 0 0  0.366 0 0  0.367 0 0  0.368 0 0  0.369 0 0  0.37 0 0  0.371 0 0  0.372 0 0  0.373 0 0  0.374 0 0  0.375 0 0  0.376 0 0  0.377 0 0  0.378 0 0  0.379 0 0  0.38 0 0  0.381 0 0  0.382 0 0  0.383 0 0  0.384 0 0  0.385 0 0  0.386 0 0  0.387 0 0  0.388 0 0  0.389 0 0  0.39 0 0  0.391 0 0  0.392 0 0  0.393 0 0  0.394 0 0  0.395 0 0  0.396 0 0  0.397 0 0  0.398 0 0  0.399 0 0  0.4 0 0  0.401 0 0  0.402 0 0  0.403 0 0  0.404 0 0  0.405 0 0  0.406 0 0  0.407 0 0  0.408 0 0  0.409 0 0  0.41 0 0  0.411 0 0  0.412 0 0  0.413 0 0  0.414 0 0  0.415 0 0  0.416 0 0  0.417 0 0  0.418 0 0  0.419 0 0  0.42 0 0  0.421 0 0  0.422 0 0  0.423 0 0  0.424 0 0  0.425 0 0  0.426 0 0  0.427 0 0  0.428 0 0  0.429 0 0  0.43 0 0  0.431 0 0  0.432 0 0  0.433 0 0  0.434 0 0  0.435 0 0  0.436 0 0  0.437 0 0  0.438 0 0  0.439 0 0  0.44 0 0  0.441 0 0  0.442 0 0  0.443 0 0  0.444 0 0  0.445 0 0  0.446 0 0  0.447 0 0  0.448 0 0  0.449 0 0  0.45 0 0  0.451 0 0  0.452 0 0  0.453 0 0  0.454 0 0  0.455 0 0  0.456 0 0  0.457 0 0  0.458 0 0  0.459 0 0  0.46 0 0  0.461 0 0  0.462 0 0  0.463 0 0  0.464 0 0  0.465 0 0  0.466 0 0  0.467 0 0  0.468 0 0  0.469 0 0  0.47 0 0  0.471 0 0  0.472 0 0  0.473 0 0  0.474 0 0  0.475 0 0  0.476 0 0  0.477 0 0  0.478 0 0  0.479 0 0  0.48 0 0  0.481 0 0  0.482 0 0  0.483 0 0  0.484 0 0  0.485 0 0  0.486 0 0  0.487 0 0  0.488 0 0  0.489 0 0  0.49 0 0  0.491 0 0  0.492 0 0  0.493 0 0  0.494 0 0  0.495 0 0  0.496 0 0  0.497 0 0  0.498 0 0  0.499 0 0  0.5 0 0  0.501 0 0  0.502 0 0  0.503 0 0  0.504 0 0  0.505 0 0  0.506 0 0  0.507 0 0  0.508 0 0  0.509 0 0  0.51 0 0  0.511 0 0  0.512 0 0  0.513 0 0  0.514 0 0  0.515 0 0  0.516 0 0  0.517 0 0  0.518 0 0  0.519 0 0  0.52 0 0  0.521 0 0  0.522 0 0  0.523 0 0  0.524 0 0  0.525 0 0  0.526 0 0  0.527 0 0  0.528 0 0  0.529 0 0  0.53 0 0  0.531 0 0  0.532 0 0  0.533 0 0  0.534 0 0  0.535 0 0  0.536 0 0  0.537 0 0  0.538 0 0  0.539 0 0  0.54 0 0  0.541 0 0  0.542 0 0  0.543 0 0  0.544 0 0  0.545 0 0  0.546 0 0  0.547 0 0  0.548 0 0  0.549 0 0  0.55 0 0  0.551 0 0  0.552 0 0  0.553 0 0  0.554 0 0  0.555 0 0  0.556 0 0  0.5570000000000001 0 0  0.5580000000000001 0 0  0.5590000000000001 0 0  0.5600000000000001 0 0  0.5610000000000001 0 0  0.5620000000000001 0 0  0.5629999999999999 0 0  0.5639999999999999 0 0  0.5649999999999999 0 0  0.5659999999999999 0 0  0.5669999999999999 0 0  0.5679999999999999 0 0  0.569 0 0  0.57 0 0  0.571 0 0  0.572 0 0  0.573 0 0  0.574 0 0  0.575 0 0  0.576 0 0  0.577 0 0  0.578 0 0  0.579 0 0  0.58 0 0  0.581 0 0  0.582 0 0  0.583 0 0  0.584 0 0  0.585 0 0  0.586 0 0  0.587 0 0  0.588 0 0  0.589 0 0  0.59 0 0  0.591 0 0  0.592 0 0  0.593 0 0  0.594 0 0  0.595 0 0  0.596 0 0  0.597 0 0  0.598 0 0  0.599 0 0  0.6 0 0  0.601 0 0  0.602 0 0  0.603 0 0  0.604 0 0  0.605 0 0  0.606 0 0  0.607 0 0  0.608 0 0  0.609 0 0  0.61 0 0  0.611 0 0  0.612 0 0  0.613 0 0  0.614 0 0  0.615 0 0  0.616 0 0  0.617 0 0  0.618 0 0  0.619 0 0  0.62 0 0  0.621 0 0  0.622 0 0  0.623 0 0  0.624 0 0  0.625 0 0  0.626 0 0  0.627 0 0  0.628 0 0  0.629 0 0  0.63 0 0  0.631 0 0  0.632 0 0  0.633 0 0  0.634 0 0  0.635 0 0  0.636 0 0  0.637 0 0  0.638 0 0  0.639 0 0  0.64 0 0  0.641 0 0  0.642 0 0  0.643 0 0  0.644 0 0  0.645 0 0  0.646 0 0  0.647 0 0  0.648 0 0  0.649 0 0  0.65 0 0  0.651 0 0  0.652 0 0  0.653 0 0  0.654 0 0  0.655 0 0  0.656 0 0  0.657 0 0  0.658 0 0  0.659 0 0  0.66 0 0  0.661 0 0  0.662 0 0  0.663 0 0  0.664 0 0  0.665 0 0  0.666 0 0  0.667 0 0  0.668 0 0  0.669 0 0  0.67 0 0  0.671 0 0  0.672 0 0  0.673 0 0  0.674 0 0  0.675 0 0  0.676 0 0  0.677 0 0  0.678 0 0  0.679 0 0  0.68 0 0  0.681 0 0  0.6820000000000001 0 0  0.6830000000000001 0 0  0.6840000000000001 0 0  0.6850000000000001 0 0  0.6860000000000001 0 0  0.6870000000000001 0 0  0.6879999999999999 0 0  0.6889999999999999 0 0  0.6899999999999999 0 0  0.6909999999999999 0 0  0.6919999999999999 0 0  0.6929999999999999 0 0  0.694 0 0  0.695 0 0  0.696 0 0  0.697 0 0  0.698 0 0  0.699 0 0  0.7 0 0  0.701 0 0  0.702 0 0  0.703 0 0  0.704 0 0  0.705 0 0  0.706 0 0  0.707 0 0  0.708 0 0  0.709 0 0  0.71 0 0  0.711 0 0  0.712 0 0  0.713 0 0  0.714 0 0  0.715 0 0  0.716 0 0  0.717 0 0  0.718 0 0  0.719 0 0  0.72 0 0  0.721 0 0  0.722 0 0  0.723 0 0  0.724 0 0  0.725 0 0  0.726 0 0  0.727 0 0  0.728 0 0  0.729 0 0  0.73 0 0  0.731 0 0  0.732 0 0  0.733 0 0  0.734 0 0  0.735 0 0  0.736 0 0  0.737 0 0  0.738 0 0  0.739 0 0  0.74 0 0  0.741 0 0  0.742 0 0  0.743 0 0  0.744 0 0  0.745 0 0  0.746 0 0  0.747 0 0  0.748 0 0  0.749 0 0  0.75 0 0  0.751 0 0  0.752 0 0  0.753 0 0  0.754 0 0  0.755 0 0  0.756 0 0  0.757 0 0  0.758 0 0  0.759 0 0  0.76 0 0  0.761 0 0  0.762 0 0  0.763 0 0  0.764 0 0  0.765 0 0  0.766 0 0  0.767 0 0  0.768 0 0  0.769 0 0  0.77 0 0  0.771 0 0  0.772 0 0  0.773 0 0  0.774 0 0  0.775 0 0  0.776 0 0  0.777 0 0  0.778 0 0  0.779 0 0  0.78 0 0  0.781 0 0  0.782 0 0  0.783 0 0  0.784 0 0  0.785 0 0  0.786 0 0  0.787 0 0  0.788 0 0  0.789 0 0  0.79 0 0  0.791 0 0  0.792 0 0  0.793 0 0  0.794 0 0  0.795 0 0  0.796 0 0  0.797 0 0  0.798 0 0  0.799 0 0  0.8 0 0  0.801 0 0  0.802 0 0  0.803 0 0  0.804 0 0  0.805 0 0  0.806 0 0  0.8070000000000001 0 0  0.8080000000000001 0 0  0.8090000000000001 0 0  0.8100000000000001 0 0  0.8110000000000001 0 0  0.8120000000000001 0 0  0.8129999999999999 0 0  0.8139999999999999 0 0  0.8149999999999999 0 0  0.8159999999999999 0 0  0.8169999999999999 0 0  0.8179999999999999 0 0  0.819 0 0  0.82 0 0  0.821 0 0  0.822 0 0  0.823 0 0  0.824 0 0  0.825 0 0  0.826 0 0  0.827 0 0  0.828 0 0  0.829 0 0  0.83 0 0  0.831 0 0  0.832 0 0  0.833 0 0  0.834 0 0  0.835 0 0  0.836 0 0  0.837 0 0  0.838 0 0  0.839 0 0  0.84 0 0  0.841 0 0  0
[...]
<PointData  Scalars="f_20-0"> 
<DataArray  type="Float64"  Name="f_20-0"  format="ascii">2.0000000000084310e+00  2.0000000000085416e+00  2.0000000000088765e+00  2.0000000000094444e+00  2.0000000000102589e+00  2.0000000000113403e+00  2.0000000000127161e+00  2.0000000000144191e+00  2.0000000000164921e+00  2.0000000000189857e+00  2.0000000000219620e+00  2.0000000000254938e+00  2.0000000000296674e+00  2.0000000000345826e+00  2.0000000000403597e+00  2.0000000000471378e+00  2.0000000000550795e+00  2.0000000000643752e+00  2.0000000000752465e+00  2.0000000000879496e+00  2.0000000001027853e+00  2.0000000001201013e+00  2.0000000001403047e+00  2.0000000001638654e+00  2.0000000001913301e+00  2.0000000002233329e+00  2.0000000002606080e+00  2.0000000003040097e+00  2.0000000003545262e+00  2.0000000004133027e+00  2.0000000004816658e+00  2.0000000005611520e+00  2.0000000006535381e+00  2.0000000007608789e+00  2.0000000008855543e+00  2.0000000010303132e+00  2.0000000011983325e+00  2.0000000013932828e+00  2.0000000016194028e+00  2.0000000018815856e+00  2.0000000021854780e+00  2.0000000025375941e+00  2.0000000029454466e+00  2.0000000034176937e+00  2.0000000039643155e+00  2.0000000045968052e+00  2.0000000053283995e+00  2.0000000061743344e+00  2.0000000071521424e+00  2.0000000082819902e+00  2.0000000095870667e+00  2.0000000110940253e+00  2.0000000128334916e+00  2.0000000148406420e+00  2.0000000171558669e+00  2.0000000198255230e+00  2.0000000229027988e+00  2.0000000264486970e+00  2.0000000305331578e+00  2.0000000352363410e+00  2.0000000406500806e+00  2.0000000468795514e+00  2.0000000540451621e+00  2.0000000622847085e+00  2.0000000717558275e+00  2.0000000826387887e+00  2.0000000951396673e+00  2.0000001094939490e+00  2.0000001259706326e+00  2.0000001448768816e+00  2.0000001665633085e+00  2.0000001914299763e+00  2.0000002199331988e+00  2.0000002525932579e+00  2.0000002900031495e+00  2.0000003328384919e+00  2.0000003818687517e+00  2.0000004379699505e+00  2.0000005021390450e+00  2.0000005755101951e+00  2.0000006593731614e+00  2.0000007551940979e+00  2.0000008646390457e+00  2.0000009896004669e+00  2.0000011322271996e+00  2.0000012949582620e+00  2.0000014805609809e+00  2.0000016921739867e+00  2.0000019333556702e+00  2.0000022081387709e+00  2.0000025210918539e+00  2.0000028773885110e+00  2.0000032828852188e+00  2.0000037442089136e+00  2.0000042688554371e+00  2.0000048653001659e+00  2.0000055431222794e+00  2.0000063131442767e+00  2.0000071875885612e+00  2.0000081802530900e+00  2.0000093067083342e+00  2.0000105845180309e+00  2.0000120334864970e+00  2.0000136759355707e+00  2.0000155370146020e+00  2.0000176450472718e+00  2.0000200319194379e+00  2.0000227335126781e+00  2.0000257901886735e+00  2.0000292473301600e+00  2.0000331559447675e+00  2.0000375733387443e+00  2.0000425638683019e+00  2.0000481997771220e+00  2.0000545621294714e+00  2.0000617418493229e+00  2.0000698408769759e+00  2.0000789734558251e+00  2.0000892675632156e+00  2.0001008665007234e+00  2.0001139306607283e+00  2.0001286394878237e+00  2.0001451936554240e+00  2.0001638174799177e+00  2.0001847615968682e+00  2.0002083059261175e+00  2.0002347629551913e+00  2.0002644813731516e+00  2.0002978500900599e+00  2.0003353026804085e+00  2.0003773222923931e+00  2.0004244470686472e+00  2.0004772761280947e+00  2.0005364761629365e+00  2.0006027887094175e+00  2.0006770381560113e+00  2.0007601405579658e+00  2.0008531133327798e+00  2.0009570859171890e+00  2.0010733114725476e+00  2.0012031797321650e+00  2.0013482310911410e+00  2.0015101720465198e+00  2.0016908921031606e+00  2.0018924822685022e+00  2.0021172552673634e+00  2.0023677676160063e+00  2.0026468437027605e+00  2.0029576020304614e+00  2.0033034837837160e+00  2.0036882838912606e+00  2.0041161847603486e+00  2.0045917928658143e+00  2.0051201783810031e+00  2.0057069180406479e+00  2.0063581414266727e+00  2.0070805808662233e+00  2.0078816251263727e+00  2.0087693770812596e+00  2.0097527155140131e+00  2.0108413611968050e+00  2.0120459473666639e+00  2.0133780946811206e+00  2.0148504906949172e+00  2.0164769738454518e+00  2.0182726218687179e+00  2.0202538444873706e+00  2.0224384801164206e+00  2.0248458962178240e+00  2.0274970928009477e+00  2.0304148084094766e+00  2.0336236277549395e+00  2.0371500899509694e+00  2.0410227960694192e+00  2.0452725144788064e+00  2.0499322821374277e+00  2.0550374996989880e+00  2.0606260179504328e+00  2.0667382127442417e+00  2.0734170452173082e+00  2.0807081037149167e+00  2.0886596234734127e+00  2.0973224797744909e+00  2.1067501499867785e+00  2.1169986396795006e+00  2.1281263678549753e+00  2.1401940063312805e+00  2.1532642684457435e+00  2.1674016425772091e+00  2.1826720665327324e+00  2.1991425396419304e+00  2.2168806704729351e+00  2.2359541594417531e+00  2.2564302172326336e+00  2.2783749218651383e+00  2.3018525193981860e+00  2.3269246755947131e+00  2.3536496883016054e+00  2.3820816727249334e+00  2.4122697340778299e+00  2.4442571441116967e+00  2.4780805396696683e+00  2.5137691624880123e+00  2.5513441598966300e+00  2.5908179657422608e+00  2.6321937797250037e+00  2.6754651613951075e+00  2.7206157523500636e+00  2.7676191368014309e+00  2.8164388467941714e+00  2.8670285141441663e+00  2.9193321668223939e+00  2.9732846632760084e+00  3.0288122542479505e+00  3.0858332582243095e+00  3.1442588338517941e+00  3.2039938306290128e+00  3.2649376979366087e+00  3.3269854320335197e+00  3.3900285409645150e+00  3.4539560083140897e+00  3.5186552382921557e+00  3.5840129666188911e+00  3.6499161239545357e+00  3.7162526410629990e+00  3.7829121873850018e+00  3.8497868371228354e+00  3.9167716592202209e+00  3.9837652296939101e+00  4.0506700665960231e+00  4.1173929894339683e+00  4.1838454061411374e+00  4.2499435316823728e+00  4.3156085431099589e+00  4.3807666763821009e+00  4.4453492705444413e+00  4.5092927649861529e+00  4.5725386554460012e+00  4.6350334142895200e+00  4.6967283803331803e+00  4.7575796231794767e+00  4.8175477866693512e+00  4.8765979156733117e+00  4.9346992700449501e+00  4.9918251291621747e+00  5.0479525900918638e+00  5.1030623620396778e+00  5.1571385593936157e+00  5.2101684953407776e+00  5.2621424777338639e+00  5.3130536086078726e+00  5.3628975884984769e+00  5.4116725264908876e+00  5.4593787567306489e+00  5.5060186619542515e+00  5.5515965044461044e+00  5.5961182646975205e+00  5.6395914879310540e+00  5.6820251385581555e+00  5.7234294625577489e+00  5.7638158576965068e+00  5.8031967514566221e+00  5.8415854864923729e+00  5.8789962134014324e+00  5.9154437905693662e+00  5.9509436908252100e+00  5.9855119146312354e+00  6.0191649095202173e+00  6.0519194954879927e+00  6.0837927960470353e+00  6.1148021746476848e+00  6.1449651761769779e+00  6.1742994732502625e+00  6.2028228170176476e+00  6.2305529922153573e+00  6.2575077762010487e+00  6.2837049017218707e+00  6.3091620231741485e+00  6.3338966861240946e+00  6.3579262998695363e+00  6.3812681128333706e+00  6.4039391905900001e+00  6.4259563963365016e+00  6.4473363736305584e+00  6.4680955312270880e+00  6.4882500298553065e+00  6.5078157707872455e+00  6.5268083860577653e+00  6.5452432302047709e+00  6.5631353734065749e+00  6.5804995959012480e+00  6.5973503835802916e+00  6.6137019246561071e+00  6.6295681073094856e+00  6.6449625182297174e+00  6.6598984419660088e+00  6.6743888610145330e+00  6.6884464565708797e+00  6.7020836098826333e+00  6.7153124041416774e+00  6.7281446268601517e+00  6.7405917726783011e+00  6.7526650465562499e+00  6.7643753673055160e+00  6.7757333714194239e+00  6.7867494171648559e+00  6.7974335889007111e+00  6.8077957015912682e+00  6.8178453054852781e+00  6.8275916909339722e+00  6.8370438933235036e+00  6.8462106980993873e+00  6.8551006458624917e+00  6.8637220375179400e+00  6.8720829394599416e+00  6.8801911887771805e+00  6.8880543984648046e+00  6.8956799626303971e+00  6.9030750616825873e+00  6.9102466674920668e+00  6.9172015485158704e+00  6.9239462748767231e+00  6.9304872233902177e+00  6.9368305825333438e+00  6.9429823573487361e+00  6.9489483742796496e+00  6.9547342859313526e+00  6.9603455757552233e+00  6.9657875626523662e+00  6.9710654054940857e+00  6.9761841075569819e+00  6.9811485208708755e+00  6.9859633504781673e+00  6.9906331586035160e+00  6.9951623687331219e+00  6.9995552696031273e+00  7.0038160190969085e+00  7.0079486480513298e+00  7.0119570639721438e+00  7.0158450546589952e+00  7.0196162917406211e+00  7.0232743341209725e+00  7.0268226313371720e+00  7.0302645268302859e+00  7.0336032611300343e+00  7.0368419749546147e+00  7.0399837122269515e+00  7.0430314230087072e+00  7.0459879663534544e+00  7.0488561130804781e+00  7.0516385484707182e+00  7.0543378748863734e+00  7.0569566143157205e+00  7.0594972108447722e+00  7.0619620330573110e+00  7.0643533763649637e+00  7.0666734652688890e+00  7.0689244555547086e+00  7.0711084364222838e+00  7.0732274325519420e+00  7.0752834061087482e+00  7.0772782586863823e+00  7.0792138331922221e+00  7.0810919156751302e+00  7.0829142370975120e+00  7.0846824750531319e+00  7.0863982554321661e+00  7.0880631540349688e+00  7.0896786981359554e+00  7.0912463679990481e+00  7.0927675983460405e+00  7.0942437797792275e+00  7.0956762601596628e+00  7.0970663459422969e+00  7.0984153034693032e+00  7.0997243602228046e+00  7.1009947060382332e+00  7.1022274942794983e+00  7.1034238429771150e+00  7.1045848359304253e+00  7.1057115237750015e+00  7.1068049250163137e+00  7.1078660270307044e+00  7.1088957870346592e+00  7.1098951330233993e+00  7.1108649646797257e+00  7.1118061542540678e+00  7.1127195474166358e+00  7.1136059640825575e+00  7.1144661992108773e+00  7.1153010235782208e+00  7.1161111845279530e+00  7.1168974066956121e+00  7.1176603927113895e+00  7.1184008238803660e+00  7.1191193608412640e+00  7.1198166442043718e+00  7.1204932951693483e+00  7.1211499161235237e+00  7.1217870912213739e+00  7.1224053869457400e+00  7.1230053526514139e+00  7.1235875210916557e+00  7.1241524089282002e+00  7.1247005172252980e+00  7.1252323319282915e+00  7.1257483243272750e+00  7.1262489515062697e+00  7.1267346567784466e+00  7.1272058701078072e+00  7.1276630085178052e+00  7.1281064764873054e+00  7.1285366663343384e+00  7.1289539585880073e+00  7.1293587223489912e+00  7.1297513156389964e+00  7.1301320857395272e+00  7.1305013695203581e+00  7.1308594937580523e+00  7.1312067754448467e+00  7.1315435220882852e+00  7.1318700320018662e+00  7.1321865945870817e+00  7.1324934906071098e+00  7.1327909924524784e+00  7.1330793643989878e+00  7.1333588628581728e+00  7.1336297366205663e+00  7.1338922270920326e+00  7.1341465685233914e+00  7.1343929882336106e+00  7.1346317068267258e+00  7.1348629384027378e+00  7.1350868907626515e+00  7.1353037656078202e+00  7.1355137587337643e+00  7.1357170602185747e+00  7.1359138546060228e+00  7.1361043210834776e+00  7.1362886336546705e+00  7.1364669613073941e+00  7.1366394681761607e+00  7.1368063136998066e+00  7.1369676527740822e+00  7.1371236358991839e+00  7.1372744093222016e+00  7.1374201151744625e+00  7.1375608916036892e+00  7.1376968729009640e+00  7.1378281896224065e+00  7.1379549687055350e+00  7.1380773335802656e+00  7.1381954042745175e+00  7.1383092975143612e+00  7.1384191268187545e+00  7.1385250025888221e+00  7.1386270321917351e+00  7.1387253200392076e+00  7.1388199676607034e+00  7.1389110737714239e+00  7.1389987343351748e+00  7.1390830426222962e+00  7.1391640892627466e+00  7.1392419622945607e+00  7.1393167472078760e+00  7.1393885269847033e+00  7.1394573821347151e+00  7.1395233907272520e+00  7.1395866284198073e+00  7.1396471684832639e+00  7.1397050818240819e+00  7.1397604370037620e+00  7.1398133002557831e+00  7.1398637355002741e+00  7.1399118043566876e+00  7.1399575661546502e+00  7.1400010779432552e+00  7.1400423944989670e+00  7.1400815683323371e+00  7.1401186496936999e+00  7.1401536865780137e+00  7.1401867247289692e+00  7.1402178076424896e+00  7.1402469765697534e+00  7.1402742705197939e+00  7.1402997262617847e+00  7.1403233783270581e+00  7.1403452590109060e+00  7.1403653983742181e+00  7.1403838242449735e+00  7.1404005622196101e+00  7.1404156356642963e+00  7.1404290657160994e+00  7.1404408712840670e+00  7.1404510690501990e+00  7.1404596734703585e+00  7.1404666967750376e+00  7.1404721489700513e+00  7.1404760378370957e+00  7.1404783689342031e+00  7.1404791455960579e+00  7.1404783689342031e+00  7.1404760378370957e+00  7.1404721489700513e+00  7.1404666967750376e+00  7.1404596734703585e+00  7.1404510690501990e+00  7.1404408712840670e+00  7.1404290657160994e+00  7.1404156356642963e+00  7.1404005622196109e+00  7.1403838242449744e+00  7.1403653983742190e+00  7.1403452590109060e+00  7.1403233783270590e+00  7.1402997262617864e+00  7.1402742705197957e+00  7.1402469765697552e+00  7.1402178076424931e+00  7.1401867247289719e+00  7.1401536865780155e+00  7.1401186496936999e+00  7.1400815683323371e+00  7.1400423944989670e+00  7.1400010779432552e+00  7.1399575661546502e+00  7.1399118043566876e+00  7.1398637355002741e+00  7.1398133002557831e+00  7.1397604370037620e+00  7.1397050818240810e+00  7.1396471684832639e+00  7.1395866284198073e+00  7.1395233907272493e+00  7.1394573821347143e+00  7.1393885269847033e+00  7.1393167472078760e+00  7.1392419622945607e+00  7.1391640892627466e+00  7.1390830426222962e+00  7.1389987343351748e+00  7.1389110737714212e+00  7.1388199676607016e+00  7.1387253200392049e+00  7.1386270321917333e+00  7.1385250025888212e+00  7.1384191268187536e+00  7.1383092975143603e+00  7.1381954042745157e+00  7.1380773335802639e+00  7.1379549687055306e+00  7.1378281896224047e+00  7.1376968729009640e+00  7.1375608916036892e+00  7.1374201151744625e+00  7.1372744093222007e+00  7.1371236358991839e+00  7.1369676527740822e+00  7.1368063136998066e+00  7.1366394681761589e+00  7.1364669613073923e+00  7.1362886336546696e+00  7.1361043210834767e+00  7.1359138546060237e+00  7.1357170602185747e+00  7.1355137587337643e+00  7.1353037656078193e+00  7.1350868907626506e+00  7.1348629384027369e+00  7.1346317068267258e+00  7.1343929882336106e+00  7.1341465685233922e+00  7.1338922270920317e+00  7.1336297366205663e+00  7.1333588628581728e+00  7.1330793643989878e+00  7.1327909924524784e+00  7.1324934906071098e+00  7.1321865945870817e+00  7.1318700320018671e+00  7.1315435220882861e+00  7.1312067754448494e+00  7.1308594937580541e+00  7.1305013695203607e+00  7.1301320857395281e+00  7.1297513156389973e+00  7.1293587223489929e+00  7.1289539585880073e+00  7.1285366663343392e+00  7.1281064764873081e+00  7.1276630085178061e+00  7.1272058701078080e+00  7.1267346567784466e+00  7.1262489515062697e+00  7.1257483243272750e+00  7.1252323319282924e+00  7.1247005172252971e+00  7.1241524089282002e+00  7.1235875210916557e+00  7.1230053526514139e+00  7.1224053869457400e+00  7.1217870912213739e+00  7.1211499161235237e+00  7.1204932951693483e+00  7.1198166442043718e+00  7.1191193608412640e+00  7.1184008238803660e+00  7.1176603927113895e+00  7.1168974066956121e+00  7.1161111845279512e+00  7.1153010235782199e+00  7.1144661992108764e+00  7.1136059640825549e+00  7.1127195474166340e+00  7.1118061542540669e+00  7.1108649646797248e+00  7.1098951330233993e+00  7.1088957870346592e+00  7.1078660270307044e+00  7.1068049250163137e+00  7.1057115237750006e+00  7.1045848359304253e+00  7.1034238429771159e+00  7.1022274942794992e+00  7.1009947060382332e+00  7.0997243602228046e+00  7.0984153034693040e+00  7.0970663459422987e+00  7.0956762601596628e+00  7.0942437797792275e+00  7.0927675983460414e+00  7.0912463679990489e+00  7.0896786981359554e+00  7.0880631540349688e+00  7.0863982554321661e+00  7.0846824750531319e+00  7.0829142370975111e+00  7.0810919156751302e+00  7.0792138331922221e+00  7.0772782586863814e+00  7.0752834061087473e+00  7.0732274325519420e+00  7.0711084364222838e+00  7.0689244555547077e+00  7.0666734652688881e+00  7.0643533763649629e+00  7.0619620330573101e+00  7.0594972108447722e+00  7.0569566143157196e+00  7.0543378748863717e+00  7.0516385484707174e+00  7.0488561130804754e+00  7.0459879663534526e+00  7.0430314230087072e+00  7.0399837122269506e+00  7.0368419749546129e+00  7.0336032611300343e+00  7.0302645268302877e+00  7.0268226313371711e+00  7.0232743341209716e+00  7.0196162917406202e+00  7.0158450546589943e+00  7.0119570639721420e+00  7.0079486480513289e+00  7.0038160190969085e+00  6.9995552696031273e+00  6.9951623687331219e+00  6.9906331586035151e+00  6.9859633504781646e+00  6.9811485208708746e+00  6.9761841075569810e+00  6.9710654054940857e+00  6.9657875626523662e+00  6.9603455757552233e+00  6.9547342859313526e+00  6.9489483742796496e+00  6.9429823573487361e+00  6.9368305825333429e+00  6.9304872233902177e+00  6.9239462748767231e+00  6.9172015485158695e+00  6.9102466674920651e+00  6.9030750616825856e+00  6.8956799626303962e+00  6.8880543984648037e+00  6.8801911887771796e+00  6.8720829394599399e+00  6.8637220375179391e+00  6.8551006458624917e+00  6.8462106980993873e+00  6.8370438933235027e+00  6.8275916909339740e+00  6.8178453054852781e+00  6.8077957015912682e+00  6.7974335889007111e+00  6.7867494171648559e+00  6.7757333714194239e+00  6.7643753673055169e+00  6.7526650465562517e+00  6.7405917726783029e+00  6.7281446268601544e+00  6.7153124041416783e+00  6.7020836098826360e+00  6.6884464565708805e+00  6.6743888610145357e+00  6.6598984419660088e+00  6.6449625182297174e+00  6.6295681073094856e+00  6.6137019246561088e+00  6.5973503835802925e+00  6.5804995959012498e+00  6.5631353734065767e+00  6.5452432302047718e+00  6.5268083860577679e+00  6.5078157707872482e+00  6.4882500298553101e+00  6.4680955312270907e+00  6.4473363736305629e+00  6.4259563963365061e+00  6.4039391905900009e+00  6.3812681128333715e+00  6.3579262998695372e+00  6.3338966861240946e+00  6.3091620231741503e+00  6.2837049017218725e+00  6.2575077762010505e+00  6.2305529922153591e+00  6.2028228170176503e+00  6.1742994732502643e+00  6.1449651761769806e+00  6.1148021746476884e+00  6.0837927960470388e+00  6.0519194954879962e+00  6.0191649095202200e+00  5.9855119146312354e+00  5.9509436908252100e+00  5.9154437905693662e+00  5.8789962134014324e+00  5.8415854864923746e+00  5.8031967514566229e+00  5.7638158576965104e+00  5.7234294625577524e+00  5.6820251385581573e+00  5.6395914879310576e+00  5.5961182646975240e+00  5.5515965044461089e+00  5.5060186619542559e+00  5.4593787567306524e+00  5.4116725264908903e+00  5.3628975884984795e+00  5.3130536086078770e+00  5.2621424777338683e+00  5.2101684953407821e+00  5.1571385593936201e+00  5.1030623620396822e+00  5.0479525900918665e+00  4.9918251291621791e+00  4.9346992700449555e+00  4.8765979156733170e+00  4.8175477866693557e+00  4.7575796231794820e+00  4.6967283803331838e+00  4.6350334142895226e+00  4.5725386554460039e+00  4.5092927649861565e+00  4.4453492705444448e+00  4.3807666763821018e+00  4.3156085431099589e+00  4.2499435316823737e+00  4.1838454061411374e+00  4.1173929894339683e+00  4.0506700665960249e+00  3.9837652296939128e+00  3.9167716592202226e+00  3.8497868371228381e+00  3.7829121873850040e+00  3.7162526410630012e+00  3.6499161239545383e+00  3.5840129666188933e+00  3.5186552382921579e+00  3.4539560083140914e+00  3.3900285409645168e+00  3.3269854320335215e+00  3.2649376979366105e+00  3.2039938306290145e+00  3.1442588338517963e+00  3.0858332582243118e+00  3.0288122542479528e+00  2.9732846632760102e+00  2.9193321668223953e+00  2.8670285141441685e+00  2.8164388467941728e+00  2.7676191368014327e+00  2.7206157523500654e+00  2.6754651613951093e+00  2.6321937797250055e+00  2.5908179657422634e+00  2.5513441598966313e+00  2.5137691624880136e+00  2.4780805396696692e+00  2.4442571441116971e+00  2.4122697340778299e+00  2.3820816727249325e+00  2.3536496883016045e+00  2.3269246755947126e+00  2.3018525193981865e+00  2.2783749218651383e+00  2.2564302172326336e+00  2.2359541594417536e+00  2.2168806704729365e+00  2.1991425396419313e+00  2.1826720665327328e+00  2.1674016425772091e+00  2.1532642684457453e+00  2.1401940063312823e+00  2.1281263678549776e+00  2.1169986396795024e+00  2.1067501499867798e+00  2.0973224797744927e+00  2.0886596234734145e+00  2.0807081037149180e+00  2.0734170452173091e+00  2.0667382127442431e+00  2.0606260179504332e+00  2.0550374996989889e+00  2.0499322821374291e+00  2.0452725144788073e+00  2.0410227960694205e+00  2.0371500899509707e+00  2.0336236277549