<?xml version="1.0"?>
<VTKFile type="UnstructuredGrid"  version="0.1"  >
<UnstructuredGrid>
<Piece  NumberOfPoints="2601" NumberOfCells="5000">
<Points>
<DataArray  type="Float64"  NumberOfComponents="3"  format="ascii">0 0 0  0.02 0 0  0.04 0 0  0.06 0 0  0.08 0 0  0.1 0 0  0.12 0 0  0.14 0 0  0.16 0 0  0.18 0 0  0.2 0 0  0.22 0 0  0.24 0 0  0.26 0 0  0.28 0 0  0.3 0 0  0.32 0 0  0.34 0 0  0.36 0 0  0.38 0 0  0.4 0 0  0.42 0 0  0.44 0 0  0.46 0 0  0.48 0 0  0.5 0 0  0.52 0 0  0.54 0 0  0.5600000000000001 0 0  0.58 0 0  0.6 0 0  0.62 0 0  0.64 0 0  0.66 0 0  0.68 0 0  0.7 0 0  0.72 0 0  0.74 0 0  0.76 0 0  0.78 0 0  0.8 0 0  0.82 0 0  0.84 0 0  0.86 0 0  0.88 0 0  0.9 0 0  0.92 0 0  0.9399999999999999 0 0  0.96 0 0  0.98 0 0  1 0 0  0 0.02 0  0.02 0.02 0  0.04 0.02 0  0.06 0.02 0  0.08 0.02 0  0.1 0.02 0  0.12 0.02 0  0.14 0.02 0  0.16 0.02 0  0.18 0.02 0  0.2 0.02 0  0.22 0.02 0  0.24 0.02 0  0.26 0.02 0  0.28 0.02 0  0.3 0.02 0  0.32 0.02 0  0.34 0.02 0  0.36 0.02 0  0.38 0.02 0  0.4 0.02 0  0.42 0.02 0  0.44 0.02 0  0.46 0.02 0  0.48 0.02 0  0.5 0.02 0  0.52 0.02 0  0.54 0.02 0  0.5600000000000001 0.02 0  0.58 0.02 0  0.6 0.02 0  0.62 0.02 0  0.64 0.02 0  0.66 0.02 0  0.68 0.02 0  0.7 0.02 0  0.72 0.02 0  0.74 0.02 0  0.76 0.02 0  0.78 0.02 0  0.8 0.02 0  0.82 0.02 0  0.84 0.02 0  0.86 0.02 0  0.88 0.02 0  0.9 0.02 0  0.92 0.02 0  0.9399999999999999 0.02 0  0.96 0.02 0  0.98 0.02 0  1 0.02 0  0 0.04 0  0.02 0.04 0  0.04 0.04 0  0.06 0.04 0  0.08 0.04 0  0.1 0.04 0  0.12 0.04 0  0.14 0.04 0  0.16 0.04 0  0.18 0.04 0  0.2 0.04 0  0.22 0.04 0  0.24 0.04 0  0.26 0.04 0  0.28 0.04 0  0.3 0.04 0  0.32 0.04 0  0.34 0.04 0  0.36 0.04 0  0.38 0.04 0  0.4 0.04 0  0.42 0.04 0  0.44 0.04 0  0.46 0.04 0  0.48 0.04 0  0.5 0.04 0  0.52 0.04 0  0.54 0.04 0  0.5600000000000001 0.04 0  0.58 0.04 0  0.6 0.04 0  0.62 0.04 0  0.64 0.04 0  0.66 0.04 0  0.68 0.04 0  0.7 0.04 0  0.72 0.04 0  0.74 0.04 0  0.76 0.04 0  0.78 0.04 0  0.8 0.04 0  0.82 0.04 0  0.84 0.04 0  0.86 0.04 0  0.88 0.04 0  0.9 0.04 0  0.92 0.04 0  0.9399999999999999 0.04 0  0.96 0.04 0  0.98 0.04 0  1 0.04 0  0 0.06 0  0.02 0.06 0  0.04 0.06 0  0.06 0.06 0  0.08 0.06 0  0.1 0.06 0  0.12 0.06 0  0.14 0.06 0  0.16 0.06 0  0.18 0.06 0  0.2 0.06 0  0.22 0.06 0  0.24 0.06 0  0.26 0.06 0  0.28 0.06 0  0.3 0.06 0  0.32 0.06 0  0.34 0.06 0  0.36 0.06 0  0.38 0.06 0  0.4 0.06 0  0.42 0.06 0  0.44 0.06 0  0.46 0.06 0  0.48 0.06 0  0.5 0.06 0  0.52 0.06 0  0.54 0.06 0  0.5600000000000001 0.06 0  0.58 0.06 0  0.6 0.06 0  0.62 0.06 0  0.64 0.06 0  0.66 0.06 0  0.68 0.06 0  0.7 0.06 0  0.72 0.06 0  0.74 0.06 0  0.76 0.06 0  0.78 0.06 0  0.8 0.06 0  0.82 0.06 0  0.84 0.06 0  0.86 0.06 0  0.88 0.06 0  0.9 0.06 0  0.92 0.06 0  0.9399999999999999 0.06 0  0.96 0.06 0  0.98 0.06 0  1 0.06 0  0 0.08 0  0.02 0.08 0  0.04 0.08 0  0.06 0.08 0  0.08 0.08 0  0.1 0.08 0  0.12 0.08 0  0.14 0.08 0  0.16 0.08 0  0.18 0.08 0  0.2 0.08 0  0.22 0.08 0  0.24 0.08 0  0.26 0.08 0  0.28 0.08 0  0.3 0.08 0  0.32 0.08 0  0.34 0.08 0  0.36 0.08 0  0.38 0.08 0  0.4 0.08 0  0.42 0.08 0  0.44 0.08 0  0.46 0.08 0  0.48 0.08 0  0.5 0.08 0  0.52 0.08 0  0.54 0.08 0  0.5600000000000001 0.08 0  0.58 0.08 0  0.6 0.08 0  0.62 0.08 0  0.64 0.08 0  0.66 0.08 0  0.68 0.08 0  0.7 0.08 0  0.72 0.08 0  0.74 0.08 0  0.76 0.08 0  0.78 0.08 0  0.8 0.08 0  0.82 0.08 0  0.84 0.08 0  0.86 0.08 0  0.88 0.08 0  0.9 0.08 0  0.92 0.08 0  0.9399999999999999 0.08 0  0.96 0.08 0  0.98 0.08 0  1 0.08 0  0 0.1 0  0.02 0.1 0  0.04 0.1 0  0.06 0.1 0  0.08 0.1 0  0.1 0.1 0  0.12 0.1 0  0.14 0.1 0  0.16 0.1 0  0.18 0.1 0  0.2 0.1 0  0.22 0.1 0  0.24 0.1 0  0.26 0.1 0  0.28 0.1 0  0.3 0.1 0  0.32 0.1 0  0.34 0.1 0  0.36 0.1 0  0.38 0.1 0  0.4 0.1 0  0.42 0.1 0  0.44 0.1 0  0.46 0.1 0  0.48 0.1 0  0.5 0.1 0  0.52 0.1 0  0.54 0.1 0  0.5600000000000001 0.1 0  0.58 0.1 0  0.6 0.1 0  0.62 0.1 0  0.64 0.1 0  0.66 0.1 0  0.68 0.1 0  0.7 0.1 0  0.72 0.1 0  0.74 0.1 0  0.76 0.1 0  0.78 0.1 0  0.8 0.1 0  0.82 0.1 0  0.84 0.1 0  0.86 0.1 0  0.88 0.1 0  0.9 0.1 0  0.92 0.1 0  0.9399999999999999 0.1 0  0.96 0.1 0  0.98 0.1 0  1 0.1 0  0 0.12 0  0.02 0.12 0  0.04 0.12 0  0.06 0.12 0  0.08 0.12 0  0.1 0.12 0  0.12 0.12 0  0.14 0.12 0  0.16 0.12 0  0.18 0.12 0  0.2 0.12 0  0.22 0.12 0  0.24 0.12 0  0.26 0.12 0  0.28 0.12 0  0.3 0.12 0  0.32 0.12 0  0.34 0.12 0  0.36 0.12 0  0.38 0.12 0  0.4 0.12 0  0.42 0.12 0  0.44 0.12 0  0.46 0.12 0  0.48 0.12 0  0.5 0.12 0  0.52 0.12 0  0.54 0.12 0  0.5600000000000001 0.12 0  0.58 0.12 0  0.6 0.12 0  0.62 0.12 0  0.64 0.12 0  0.66 0.12 0  0.68 0.12 0  0.7 0.12 0  0.72 0.12 0  0.74 0.12 0  0.76 0.12 0  0.78 0.12 0  0.8 0.12 0  0.82 0.12 0  0.84 0.12 0  0.86 0.12 0  0.88 0.12 0  0.9 0.12 0  0.92 0.12 0  0.9399999999999999 0.12 0  0.96 0.12 0  0.98 0.12 0  1 0.12 0  0 0.14 0  0.02 0.14 0  0.04 0.14 0  0.06 0.14 0  0.08 0.14 0  0.1 0.14 0  0.12 0.14 0  0.14 0.14 0  0.16 0.14 0  0.18 0.14 0  0.2 0.14 0  0.22 0.14 0  0.24 0.14 0  0.26 0.14 0  0.28 0.14 0  0.3 0.14 0  0.32 0.14 0  0.34 0.14 0  0.36 0.14 0  0.38 0.14 0  0.4 0.14 0  0.42 0.14 0  0.44 0.14 0  0.46 0.14 0  0.48 0.14 0  0.5 0.14 0  0.52 0.14 0  0.54 0.14 0  0.5600000000000001 0.14 0  0.58 0.14 0  0.6 0.14 0  0.62 0.14 0  0.64 0.14 0  0.66 0.14 0  0.68 0.14 0  0.7 0.14 0  0.72 0.14 0  0.74 0.14 0  0.76 0.14 0  0.78 0.14 0  0.8 0.14 0  0.82 0.14 0  0.84 0.14 0  0.86 0.14 0  0.88 0.14 0  0.9 0.14 0  0.92 0.14 0  0.9399999999999999 0.14 0  0.96 0.14 0  0.98 0.14 0  1 0.14 0  0 0.16 0  0.02 0.16 0  0.04 0.16 0  0.06 0.16 0  0.08 0.16 0  0.1 0.16 0  0.12 0.16 0  0.14 0.16 0  0.16 0.16 0  0.18 0.16 0  0.2 0.16 0  0.22 0.16 0  0.24 0.16 0  0.26 0.16 0  0.28 0.16 0  0.3 0.16 0  0.32 0.16 0  0.34 0.16 0  0.36 0.16 0  0.38 0.16 0  0.4 0.16 0  0.42 0.16 0  0.44 0.16 0  0.46 0.16 0  0.48 0.16 0  0.5 0.16 0  0.52 0.16 0  0.54 0.16 0  0.5600000000000001 0.16 0  0.58 0.16 0  0.6 0.16 0  0.62 0.16 0  0.64 0.16 0  0.66 0.16 0  0.68 0.16 0  0.7 0.16 0  0.72 0.16 0  0.74 0.16 0  0.76 0.16 0  0.78 0.16 0  0.8 0.16 0  0.82 0.16 0  0.84 0.16 0  0.86 0.16 0  0.88 0.16 0  0.9 0.16 0  0.92 0.16 0  0.9399999999999999 0.16 0  0.96 0.16 0  0.98 0.16 0  1 0.16 0  0 0.18 0  0.02 0.18 0  0.04 0.18 0  0.06 0.18 0  0.08 0.18 0  0.1 0.18 0  0.12 0.18 0  0.14 0.18 0  0.16 0.18 0  0.18 0.18 0  0.2 0.18 0  0.22 0.18 0  0.24 0.18 0  0.26 0.18 0  0.28 0.18 0  0.3 0.18 0  0.32 0.18 0  0.34 0.18 0  0.36 0.18 0  0.38 0.18 0  0.4 0.18 0  0.42 0.18 0  0.44 0.18 0  0.46 0.18 0  0.48 0.18 0  0.5 0.18 0  0.52 0.18 0  0.54 0.18 0  0.5600000000000001 0.18 0  0.58 0.18 0  0.6 0.18 0  0.62 0.18 0  0.64 0.18 0  0.66 0.18 0  0.68 0.18 0  0.7 0.18 0  0.72 0.18 0  0.74 0.18 0  0.76 0.18 0  0.78 0.18 0  0.8 0.18 0  0.82 0.18 0  0.84 0.18 0  0.86 0.18 0  0.88 0.18 0  0.9 0.18 0  0.92 0.18 0  0.9399999999999999 0.18 0  0.96 0.18 0  0.98 0.18 0  1 0.18 0  0 0.2 0  0.02 0.2 0  0.04 0.2 0  0.06 0.2 0  0.08 0.2 0  0.1 0.2 0  0.12 0.2 0  0.14 0.2 0  0.16 0.2 0  0.18 0.2 0  0.2 0.2 0  0.22 0.2 0  0.24 0.2 0  0.26 0.2 0  0.28 0.2 0  0.3 0.2 0  0.32 0.2 0  0.34 0.2 0  0.36 0.2 0  0.38 0.2 0  0.4 0.2 0  0.42 0.2 0  0.44 0.2 0  0.46 0.2 0  0.48 0.2 0  0.5 0.2 0  0.52 0.2 0  0.54 0.2 0  0.5600000000000001 0.2 0  0.58 0.2 0  0.6 0.2 0  0.62 0.2 0  0.64 0.2 0  0.66 0.2 0  0.68 0.2 0  0.7 0.2 0  0.72 0.2 0  0.74 0.2 0  0.76 0.2 0  0.78 0.2 0  0.8 0.2 0  0.82 0.2 0  0.84 0.2 0  0.86 0.2 0  0.88 0.2 0  0.9 0.2 0  0.92 0.2 0  0.9399999999999999 0.2 0  0.96 0.2 0  0.98 0.2 0  1 0.2 0  0 0.22 0  0.02 0.22 0  0.04 0.22 0  0.06 0.22 0  0.08 0.22 0  0.1 0.22 0  0.12 0.22 0  0.14 0.22 0  0.16 0.22 0  0.18 0.22 0  0.2 0.22 0  0.22 0.22 0  0.24 0.22 0  0.26 0.22 0  0.28 0.22 0  0.3 0.22 0  0.32 0.22 0  0.34 0.22 0  0.36 0.22 0  0.38 0.22 0  0.4 0.22 0  0.42 0.22 0  0.44 0.22 0  0.46 0.22 0  0.48 0.22 0  0.5 0.22 0  0.52 0.22 0  0.54 0.22 0  0.5600000000000001 0.22 0  0.58 0.22 0  0.6 0.22 0  0.62 0.22 0  0.64 0.22 0  0.66 0.22 0  0.68 0.22 0  0.7 0.22 0  0.72 0.22 0  0.74 0.22 0  0.76 0.22 0  0.78 0.22 0  0.8 0.22 0  0.82 0.22 0  0.84 0.22 0  0.86 0.22 0  0.88 0.22 0  0.9 0.22 0  0.92 0.22 0  0.9399999999999999 0.22 0  0.96 0.22 0  0.98 0.22 0  1 0.22 0  0 0.24 0  0.02 0.24 0  0.04 0.24 0  0.06 0.24 0  0.08 0.24 0  0.1 0.24 0  0.12 0.24 0  0.14 0.24 0  0.16 0.24 0  0.18 0.24 0  0.2 0.24 0  0.22 0.24 0  0.24 0.24 0  0.26 0.24 0  0.28 0.24 0  0.3 0.24 0  0.32 0.24 0  0.34 0.24 0  0.36 0.24 0  0.38 0.24 0  0.4 0.24 0  0.42 0.24 0  0.44 0.24 0  0.46 0.24 0  0.48 0.24 0  0.5 0.24 0  0.52 0.24 0  0.54 0.24 0  0.5600000000000001 0.24 0  0.58 0.24 0  0.6 0.24 0  0.62 0.24 0  0.64 0.24 0  0.66 0.24 0  0.68 0.24 0  0.7 0.24 0  0.72 0.24 0  0.74 0.24 0  0.76 0.24 0  0.78 0.24 0  0.8 0.24 0  0.82 0.24 0  0.84 0.24 0  0.86 0.24 0  0.88 0.24 0  0.9 0.24 0  0.92 0.24 0  0.9399999999999999 0.24 0  0.96 0.24 0  0.98 0.24 0  1 0.24 0  0 0.26 0  0.02 0.26 0  0.04 0.26 0  0.06 0.26 0  0.08 0.26 0  0.1 0.26 0  0.12 0.26 0  0.14 0.26 0  0.16 0.26 0  0.18 0.26 0  0.2 0.26 0  0.22 0.26 0  0.24 0.26 0  0.26 0.26 0  0.28 0.26 0  0.3 0.26 0  0.32 0.26 0  0.34 0.26 0  0.36 0.26 0  0.38 0.26 0  0.4 0.26 0  0.42 0.26 0  0.44 0.26 0  0.46 0.26 0  0.48 0.26 0  0.5 0.26 0  0.52 0.26 0  0.54 0.26 0  0.5600000000000001 0.26 0  0.58 0.26 0  0.6 0.26 0  0.62 0.26 0  0.64 0.26 0  0.66 0.26 0  0.68 0.26 0  0.7 0.26 0  0.72 0.26 0  0.74 0.26 0  0.76 0.26 0  0.78 0.26 0  0.8 0.26 0  0.82 0.26 0  0.84 0.26 0  0.86 0.26 0  0.88 0.26 0  0.9 0.26 0  0.92 0.26 0  0.9399999999999999 0.26 0  0.96 0.26 0  0.98 0.26 0  1 0.26 0  0 0.28 0  0.02 0.28 0  0.04 0.28 0  0.06 0.28 0  0.08 0.28 0  0.1 0.28 0  0.12 0.28 0  0.14 0.28 0  0.16 0.28 0  0.18 0.28 0  0.2 0.28 0  0.22 0.28 0  0.24 0.28 0  0.26 0.28 0  0.28 0.28 0  0.3 0.28 0  0.32 0.28 0  0.34 0.28 0  0.36 0.28 0  0.38 0.28 0  0.4 0.28 0  0.42 0.28 0  0.44 0.28 0  0.46 0.28 0  0.48 0.28 0  0.5 0.28 0  0.52 0.28 0  0.54 0.28 0  0.5600000000000001 0.28 0  0.58 0.28 0  0.6 0.28 0  0.62 0.28 0  0.64 0.28 0  0.66 0.28 0  0.68 0.28 0  0.7 0.28 0  0.72 0.28 0  0.74 0.28 0  0.76 0.28 0  0.78 0.28 0  0.8 0.28 0  0.82 0.28 0  0.84 0.28 0  0.86 0.28
[...]
<PointData  Scalars="f_10-0"> 
<DataArray  type="Float64"  Name="f_10-0"  format="ascii">1.8815584800734466e+00  1.8816152212073165e+00  1.8816409767979208e+00  1.8816561961765998e+00  1.8816668423606482e+00  1.8816750435441025e+00  1.8816817311530396e+00  1.8816873876815314e+00  1.8816922958128701e+00  1.8816966362307732e+00  1.8817005319705769e+00  1.8817040709593194e+00  1.8817073185104209e+00  1.8817103247264979e+00  1.8817131291212532e+00  1.8817157636305248e+00  1.8817182546449363e+00  1.8817206244246849e+00  1.8817228921113243e+00  1.8817250744695369e+00  1.8817271864440239e+00  1.8817292415876783e+00  1.8817312523991925e+00  1.8817332305967971e+00  1.8817351873474326e+00  1.8817371334658750e+00  1.8817390795953015e+00  1.8817410363789941e+00  1.8817430146320469e+00  1.8817450255219419e+00  1.8817470807676906e+00  1.8817491928690298e+00  1.8817513753801960e+00  1.8817536432475812e+00  1.8817560132379696e+00  1.8817585044955154e+00  1.8817611392836351e+00  1.8817639439969549e+00  1.8817669505763344e+00  1.8817701985418545e+00  1.8817737380043684e+00  1.8817776342881649e+00  1.8817819753350213e+00  1.8817868842009755e+00  1.8817925416001855e+00  1.8817992302635504e+00  1.8818074327663037e+00  1.8818180806909715e+00  1.8818333025886127e+00  1.8818590624760696e+00  1.8819158131111944e+00  1.8819555394400620e+00  1.8819710674526708e+00  1.8819866030783843e+00  1.8819988438045454e+00  1.8820084279239093e+00  1.8820161649761642e+00  1.8820226126365862e+00  1.8820281289268490e+00  1.8820329476770410e+00  1.8820372274291255e+00  1.8820410799716267e+00  1.8820445870009517e+00  1.8820478101415938e+00  1.8820507971948410e+00  1.8820535861764895e+00  1.8820562080122312e+00  1.8820586883904187e+00  1.8820610490696947e+00  1.8820633088244663e+00  1.8820654841442563e+00  1.8820675897626169e+00  1.8820696390663079e+00  1.8820716444196224e+00  1.8820736174285271e+00  1.8820755691626190e+00  1.8820775103485456e+00  1.8820794515457580e+00  1.8820814033138158e+00  1.8820833763796976e+00  1.8820853818135623e+00  1.8820874312221887e+00  1.8820895369709567e+00  1.8820917124480250e+00  1.8820939723887076e+00  1.8820963332847211e+00  1.8820988139131891e+00  1.8821014360361217e+00  1.8821042253460638e+00  1.8821072127739717e+00  1.8821104363423327e+00  1.8821139438610732e+00  1.8821177969660683e+00  1.8821220773690934e+00  1.8821268968800531e+00  1.8821324140717102e+00  1.8821388628202282e+00  1.8821466012183863e+00  1.8821561870503496e+00  1.8821684299945993e+00  1.8821839683142576e+00  1.8821994978891874e+00  1.8830024312509603e+00  1.8830077517074553e+00  1.8830163772387265e+00  1.8830250062157654e+00  1.8830327226568522e+00  1.8830394410317026e+00  1.8830452933160968e+00  1.8830504377522250e+00  1.8830550105111401e+00  1.8830591195234339e+00  1.8830628487149670e+00  1.8830662635643696e+00  1.8830694157833563e+00  1.8830723468534118e+00  1.8830750906123179e+00  1.8830776751352694e+00  1.8830801241110249e+00  1.8830824578599210e+00  1.8830846940973898e+00  1.8830868485154877e+00  1.8830889352333391e+00  1.8830909671526044e+00  1.8830929562439862e+00  1.8830949137838762e+00  1.8830968505555370e+00  1.8830987770260257e+00  1.8831007035079861e+00  1.8831026403141711e+00  1.8831045979119694e+00  1.8831065870852062e+00  1.8831086191110853e+00  1.8831107059613947e+00  1.8831128605391900e+00  1.8831150969653470e+00  1.8831174309340950e+00  1.8831198801635449e+00  1.8831224649773324e+00  1.8831252090682897e+00  1.8831281405166671e+00  1.8831312931665714e+00  1.8831347085074741e+00  1.8831384382612830e+00  1.8831425479197568e+00  1.8831471214257380e+00  1.8831522667315559e+00  1.8831581200346816e+00  1.8831648396038636e+00  1.8831725574211431e+00  1.8831811878725067e+00  1.8831898146088843e+00  1.8831951350268974e+00  1.8847200339071803e+00  1.8847223923551646e+00  1.8847274130117930e+00  1.8847333498136454e+00  1.8847392872726980e+00  1.8847448577234178e+00  1.8847499587529533e+00  1.8847545972343855e+00  1.8847588179081560e+00  1.8847626739032108e+00  1.8847662157599958e+00  1.8847694880858774e+00  1.8847725291641544e+00  1.8847753715867888e+00  1.8847780431461014e+00  1.8847805677019527e+00  1.8847829659350270e+00  1.8847852559720022e+00  1.8847874538949185e+00  1.8847895741542187e+00  1.8847916299047909e+00  1.8847936332818602e+00  1.8847955956306868e+00  1.8847975277014215e+00  1.8847994398183843e+00  1.8848013420314396e+00  1.8848032442560259e+00  1.8848051564076882e+00  1.8848070885366095e+00  1.8848090509676507e+00  1.8848110544517407e+00  1.8848131103351755e+00  1.8848152307545054e+00  1.8848174288662700e+00  1.8848197191229432e+00  1.8848221176090403e+00  1.8848246424542401e+00  1.8848273143428595e+00  1.8848301571391488e+00  1.8848331986407243e+00  1.8848364714459069e+00  1.8848400138455430e+00  1.8848438704557120e+00  1.8848480918262722e+00  1.8848527310946634e+00  1.8848578330044468e+00  1.8848634044154640e+00  1.8848693428606480e+00  1.8848752805320241e+00  1.8848803016508924e+00  1.8848826597617530e+00  1.8871150035795268e+00  1.8871163184638038e+00  1.8871194822989283e+00  1.8871236448311015e+00  1.8871281733914269e+00  1.8871327005898062e+00  1.8871370455520817e+00  1.8871411352069143e+00  1.8871449523634891e+00  1.8871485063490465e+00  1.8871518176844442e+00  1.8871549105152505e+00  1.8871578090793217e+00  1.8871605362006858e+00  1.8871631127702995e+00  1.8871655576890547e+00  1.8871678880127363e+00  1.8871701191722934e+00  1.8871722652098026e+00  1.8871743390038558e+00  1.8871763524744907e+00  1.8871783167656691e+00  1.8871802424068977e+00  1.8871821394571158e+00  1.8871840176344585e+00  1.8871858864355904e+00  1.8871877552481815e+00  1.8871896334600002e+00  1.8871915305680034e+00  1.8871934562908235e+00  1.8871954206881087e+00  1.8871974342903064e+00  1.8871995082425681e+00  1.8872016544663988e+00  1.8872038858421645e+00  1.8872062164140624e+00  1.8872086616155443e+00  1.8872112385053177e+00  1.8872139659876408e+00  1.8872168649572651e+00  1.8872199582423432e+00  1.8872232700849043e+00  1.8872268246340826e+00  1.8872306424122944e+00  1.8872347327434882e+00  1.8872390784232331e+00  1.8872436063464473e+00  1.8872481355698232e+00  1.8872522985819398e+00  1.8872554625440714e+00  1.8872567770651736e+00  1.8901904307510364e+00  1.8901913010179039e+00  1.8901934595193450e+00  1.8901964821219532e+00  1.8901999710033461e+00  1.8902036376527089e+00  1.8902073013717799e+00  1.8902108610376638e+00  1.8902142668846187e+00  1.8902174997671519e+00  1.8902205577642948e+00  1.8902234481023628e+00  1.8902261824899058e+00  1.8902287745116122e+00  1.8902312382225803e+00  1.8902335874274430e+00  1.8902358353437114e+00  1.8902379944768684e+00  1.8902400766092968e+00  1.8902420928479826e+00  1.8902440537004270e+00  1.8902459691621765e+00  1.8902478488073233e+00  1.8902497018778588e+00  1.8902515373702962e+00  1.8902533641194217e+00  1.8902551908798035e+00  1.8902570264060952e+00  1.8902588795333390e+00  1.8902607592584790e+00  1.8902626748241182e+00  1.8902646358051509e+00  1.8902666521981242e+00  1.8902687345117497e+00  1.8902708938544424e+00  1.8902731420102352e+00  1.8902754914864746e+00  1.8902779555027154e+00  1.8902805478657392e+00  1.8902832826327409e+00  1.8902861733901535e+00  1.8902892318473694e+00  1.8902924652296638e+00  1.8902958716114500e+00  1.8902994318362312e+00  1.8903030961165177e+00  1.8903067632909778e+00  1.8903102526002442e+00  1.8903132754494498e+00  1.8903154339275063e+00  1.8903163038594548e+00  1.8939484803635782e+00  1.8939491308430410e+00  1.8939507089836196e+00  1.8939529906833841e+00  1.8939557297980272e+00  1.8939587180726889e+00  1.8939618031463421e+00  1.8939648840209562e+00  1.8939678990725999e+00  1.8939708140712759e+00  1.8939736127309319e+00  1.8939762900268309e+00  1.8939788477492150e+00  1.8939812916547600e+00  1.8939836296893311e+00  1.8939858709035724e+00  1.8939880248069836e+00  1.8939901009957067e+00  1.8939921089494787e+00  1.8939940579322374e+00  1.8939959569556430e+00  1.8939978147803378e+00  1.8939996399394898e+00  1.8940014407752226e+00  1.8940032254822805e+00  1.8940050021556010e+00  1.8940067788398498e+00  1.8940085635797621e+00  1.8940103644704842e+00  1.8940121897071096e+00  1.8940140476322513e+00  1.8940159467797097e+00  1.8940178959108980e+00  1.8940199040383812e+00  1.8940219804271219e+00  1.8940241345579738e+00  1.8940263760282350e+00  1.8940287143485144e+00  1.8940311585703646e+00  1.8940337166401087e+00  1.8940363943140215e+00  1.8940391933804348e+00  1.8940421088101800e+00  1.8940451243087391e+00  1.8940482056314953e+00  1.8940512911310972e+00  1.8940542797747792e+00  1.8940570191549433e+00  1.8940593009635596e+00  1.8940608790124607e+00  1.8940615291920244e+00  1.8983911408963683e+00  1.8983916717599760e+00  1.8983928942562940e+00  1.8983946821033588e+00  1.8983968808020555e+00  1.8983993442624267e+00  1.8984019529281444e+00  1.8984046178732008e+00  1.8984072775703955e+00  1.8984098921413499e+00  1.8984124376110600e+00  1.8984149011481601e+00  1.8984172774739563e+00  1.8984195662967640e+00  1.8984217705408912e+00  1.8984238951526080e+00  1.8984259463094773e+00  1.8984279309052281e+00  1.8984298562201707e+00  1.8984317297154067e+00  1.8984335589091195e+00  1.8984353513070211e+00  1.8984371143683521e+00  1.8984388554950467e+00  1.8984405820357919e+00  1.8984423012993819e+00  1.8984440205734581e+00  1.8984457471457132e+00  1.8984474883250968e+00  1.8984492514605511e+00  1.8984510439543631e+00  1.8984528732662149e+00  1.8984547469023383e+00  1.8984566723814915e+00  1.8984586571653743e+00  1.8984607085348650e+00  1.8984628333841487e+00  1.8984650378910046e+00  1.8984673270014867e+00  1.8984697036389628e+00  1.8984721675096579e+00  1.8984747133310194e+00  1.8984773282651994e+00  1.8984799883269776e+00  1.8984826536227204e+00  1.8984852626037416e+00  1.8984877263159370e+00  1.8984899251700258e+00  1.8984917130439096e+00  1.8984929354177646e+00  1.8984934660132307e+00  1.9035204744799434e+00  1.9035209369397252e+00  1.9035219305512487e+00  1.9035233797534823e+00  1.9035251850038146e+00  1.9035272441927882e+00  1.9035294664228313e+00  1.9035317780348928e+00  1.9035341233232870e+00  1.9035364624904543e+00  1.9035387686224774e+00  1.9035410246671789e+00  1.9035432208405123e+00  1.9035453525733843e+00  1.9035474189637940e+00  1.9035494216463347e+00  1.9035513639842705e+00  1.9035532505012933e+00  1.9035550864870170e+00  1.9035568777264220e+00  1.9035586303167920e+00  1.9035603505459264e+00  1.9035620448129660e+00  1.9035637195785646e+00  1.9035653813349425e+00  1.9035670365889372e+00  1.9035686918528771e+00  1.9035703536391235e+00  1.9035720284546112e+00  1.9035737227917171e+00  1.9035754431113032e+00  1.9035771958127556e+00  1.9035789871841355e+00  1.9035808233229721e+00  1.9035827100144276e+00  1.9035846525481663e+00  1.9035866554476963e+00  1.9035887220757217e+00  1.9035908540656941e+00  1.9035930505136069e+00  1.9035953068471099e+00  1.9035976132771459e+00  1.9035999527441494e+00  1.9036022983237462e+00  1.9036046102042283e+00  1.9036068326618241e+00  1.9036088920161109e+00  1.9036106973471316e+00  1.9036121465265172e+00  1.9036131400026277e+00  1.9036136022212569e+00  1.9093387156500943e+00  1.9093391387105880e+00  1.9093399793876173e+00  1.9093411900619541e+00  1.9093427046929705e+00  1.9093444513315099e+00  1.9093463616749813e+00  1.9093483765863115e+00  1.9093504482038113e+00  1.9093525398190112e+00  1.9093546245900603e+00  1.9093566838306852e+00  1.9093587053007355e+00  1.9093606816997462e+00  1.9093626094295704e+00  1.9093644876217257e+00  1.9093663173947921e+00  1.9093681012987627e+00  1.9093698429052466e+00  1.9093715465084982e+00  1.9093732169091402e+00  1.9093748592587627e+00  1.9093764789488008e+00  1.9093780815311676e+00  1.9093796726611654e+00  1.9093812580554081e+00  1.9093828434589750e+00  1.9093844346169586e+00  1.9093860372460121e+00  1.9093876570014960e+00  1.9093892994353880e+00  1.9093909699391771e+00  1.9093926736644677e+00  1.9093944154118188e+00  1.9093961994752868e+00  1.9093980294260744e+00  1.9093999078134505e+00  1.9094018357548130e+00  1.9094038123798476e+00  1.9094058340876796e+00  1.9094078935739105e+00  1.9094099785928853e+00  1.9094120704508621e+00  1.9094141422962114e+00  1.9094161574082145e+00  1.9094180679107233e+00  1.9094198146509933e+00  1.9094213293115936e+00  1.9094225399325131e+00  1.9094233804699485e+00  1.9094238033118924e+00  1.9158483166704561e+00  1.9158487180464656e+00  1.9158494537385031e+00  1.9158504924054844e+00  1.9158517889696483e+00  1.9158532920580340e+00  1.9158549504163493e+00  1.9158567172955585e+00  1.9158585527806455e+00  1.9158604245239028e+00  1.9158623074556917e+00  1.9158641829575316e+00  1.9158660378346639e+00  1.9158678632896824e+00  1.9158696539995086e+00  1.9158714073348468e+00  1.9158731227257038e+00  1.9158748011592031e+00  1.9158764447893637e+00  1.9158780566377207e+00  1.9158796403655665e+00  1.9158812001014731e+00  1.9158827403107030e+00  1.9158842656957400e+00  1.9158857811193151e+00  1.9158872915429523e+00  1.9158888019752323e+00  1.9158903174247306e+00  1.9158918428529548e+00  1.9158933831226006e+00  1.9158949429360814e+00  1.9158965267585355e+00  1.9158981387183249e+00  1.9158997824764039e+00  1.9159014610537837e+00  1.9159031766036987e+00  1.9159049301121249e+00  1.9159067210074301e+00  1.9159085466580268e+00  1.9159104017376960e+00  1.9159122774448183e+00  1.9159141605791166e+00  1.9159160325150804e+00  1.9159178681744264e+00  1.9159196351992971e+00  1.9159212936634908e+00  1.9159227968067458e+00  1.9159240933651089e+00  1.9159251319596176e+00  1.9159258675122546e+00  1.9159262686886294e+00  1.9230519711085807e+00  1.9230523622551319e+00  1.9230530245930089e+00  1.9230539367423336e+00  1.9230550671288797e+00  1.9230563785214008e+00  1.9230578323066079e+00  1.9230593917757879e+00  1.9230610242111090e+00  1.9230627019017379e+00  1.9230644023669938e+00  1.9230661080760862e+00  1.9230678059006840e+00  1.9230694864659152e+00  1.9230711435021710e+00  1.9230727732527688e+00  1.9230743739611018e+00  1.9230759454420461e+00  1.9230774887322803e+00  1.9230790058095935e+00  1.9230804993698973e+00  1.9230819726509929e+00  1.9230834292932308e+00  1.9230848732285239e+00  1.9230863085904351e+00  1.9230877396391204e+00  1.9230891706957276e+00  1.9230906060813824e+00  1.9230920500561741e+00  1.9230935067535440e+00  1.9230949801052144e+00  1.9230964737512539e+00  1.9230979909290591e+00  1.9230995343339738e+00  1.9231011059429994e+00  1.9231027067917377e+00  1.9231043366936105e+00  1.9231059938900721e+00  1.9231076746218889e+00  1.9231093726161488e+00  1.9231110784937793e+00  1.9231127791212250e+00  1.9231144569613816e+00  1.9231160895262081e+00  1.9231176490967028e+00  1.9231191029465708e+00  1.9231204143591931e+00  1.9231215447151127e+00  1.9231224567800018e+00  1.9231231189808105e+00  1.9231235099435975e+00  1.9309526274497055e+00  1.9309530161124970e+00  1.9309536267375107e+00  1.9309544443053870e+00  1.9309554461956222e+00  1.9309566050288174e+00  1.9309578915305277e+00  1.9309592769312238e+00  1.9309607346809015e+00  1.9309622414712253e+00  1.9309637776816322e+00  1.9309653274093597e+00  1.9309668782361964e+00  1.9309684208542153e+00  1.9309699486370853e+00  1.9309714572120733e+00  1.9309729440638452e+00  1.9309744081846367e+00  1.9309758497748948e+00  1.9309772699924439e+00  1.9309786707451324e+00  1.9309800545206288e+00  1.9309814242468171e+00  1.9309827831765287e+00  1.9309841347908694e+00  1.9309854827159361e+00  1.9309868306481848e+00  1.9309881822840345e+00  1.9309895412494706e+00  1.9309909110254029e+00  1.9309922948643681e+00  1.9309936956938354e+00  1.9309951160009098e+00  1.9309965576926875e+00  1.9309980219260052e+00  1.9309995089000247e+00  1.9310010176053281e+00  1.9310025455244761e+00  1.9310040882820874e+00  1.9310056392485484e+00  1.9310071891119371e+00  1.9310087254492878e+00  1.9310102323523464e+00  1.9310116901944447e+00  1.9310130756608088e+00  1.9310143621951354e+00  1.9310155210224136e+00  1.9310165228643710e+00  1.9310173403402935e+00  1.9310179508315268e+00  1.9310183393239058e+00  1.9395534977122535e+00  1.9395538893210089e+00  1.9395544634939712e+00  1.9395552094255537e+00  1.9395561105977916e+00  1.9395571466083621e+00  1.9395582951099501e+00  1.9395595335460099e+00  1.9395608405015017e+00  1.9395621966150645e+00  1.9395635850882904e+00  1.9395649918732691e+00  1.9395664056311552e+00  1.9395678175458970e+00  1.9395692210597655e+00  1.9395706115784106e+00  1.9395719861765861e+00  1.9395733433228386e+00  1.9395746826322948e+00  1.9395760046506341e+00  1.9395773106686067e+00  1.9395786025643527e+00  1.9395798826697292e+00  1.9395811536564627e+00  1.9395824184378776e+00  1.9395836800820967e+00  1.9395849417327580e+00  1.9395862065334497e+00  1.9395874775521451e+00  1.9395887577019109e+00  1.9395900496540923e+00  1.9395913557400259e+00  1.9395926778371626e+00  1.9395940172353638e+00  1.9395953744791794e+00  1.9395967491823174e+00  1.9395981398115618e+00  1.9395995434395024e+00  1.9396009554691627e+00  1.9396023693396776e+00  1.9396037762313174e+00  1.9396051648010295e+00  1.9396065209962341e+00  1.9396078280135551e+00  1.9396090664866348e+00  1.9396102149958114e+00  1.9396112509808081e+00  1.9396121520920526e+00  1.9396128979269793e+00  1.9396134719697578e+00  1.9396138634193452e+00  1.9488580633824957e+00  1.9488584618582470e+00  1.9488590106121355e+00  1.9488597017217706e+00  1.9488605229371878e+00  1.9488614588856452e+00  1.9488624924022466e+00  1.9488636057836226e+00  1.9488647818288991e+00  1.9488660046065998e+00  1.9488672599461505e+00  1.9488685356902478e+00  1.9488698217611091e+00  1.9488711100954670e+00  1.9488723944964934e+00  1.9488736704406395e+00  1.9488749348668792e+00  1.9488761859666621e+00  1.9488774229856638e+00  1.9488786460431169e+00  1.9488798559708720e+00  1.9488810541719610e+00  1.9488822424969996e+00  1.9488834231359460e+00  1.9488845985223120e+00  1.9488857712467555e+00  1.9488869439769183e+00  1.9488881193803833e+00  1.9488893000476277e+00  1.9488904884118554e+00  1.9488916866625767e+00  1.9488928966498043e+00  1.9488941197757892e+00  1.9488953568713976e+00  1.9488966080546428e+00  1.9488978725697099e+00  1.9488991486062497e+00  1.9489004331010913e+00  1.9489017215281643e+00  1.9489030076877238e+00  1.9489042835131967e+00  1.9489055389231476e+00  1.9489067617563713e+00  1.9489079378383063e+00  1.9489090512336491e+00  1.9489100847381837e+00  1.9489110206460691e+00  1.9489118417912095e+00  1.9489125328012753e+00  1.9489130814285236e+00  1.9489134797545637e+00  1.9588700798427672e+00  1.9588704880882184e+00  1.9588710195630288e+00  1.9588716683754310e+00  1.9588724253338308e+00  1.9588732787583272e+00  1.9588742154058967e+00  1.9588752213782727e+00  1.9588762829149260e+00  1.9588773870163414e+00  1.9588785218816964e+00  1.9588796771731416e+00  1.9588808441348942e+00  1.9588820156012952e+00  1.9588831859270737e+00  1.9588843508684153e+00  1.9588855074373224e+00  1.9588866537456671e+00  1.9588877888500338e+00  1.9588889126041937e+00  1.9588900255228630e+00  1.9588911286581236e+00  1.9588922234883319e+00  1.9588933118183400e+00  1.9588943956892302e+00  1.9588954772953930e+00  1.9588965589065852e+00  1.9588976427924962e+00  1.9588987311473125e+00  1.9588998260117694e+00  1.9589009291902213e+00  1.9589020421603620e+00  1.9589031659734293e+00  1.9589043011430958e+00  1.9589054475218648e+00  1.9589066041648073e+00  1.9589077691820131e+00  1.9589089395834132e+00  1.9589101111228258e+00  1.9589112781523195e+00  1.9589124335033117e+00  1.9589135684168948e+00  1.9589146725519968e+00  1.9589157341046315e+00  1.9589167400723877e+00  1.9589176766923642e+00  1.9589185300647294e+00  1.9589192869459771e+00  1.9589199356570202e+00  1.9589204670084763e+00  1.9589208751121330e+00  1.9695935799287769e+00  1.9695940001378995e+00  1.9695945204363796e+00  1.9695951364012034e+00  1.9695958410840031e+00  1.9695966255678898e+00  1.9695974796185447e+00  1.9695983923442539e+00  1.9695993527960258e+00  1.9696003504634012e+00  1.9696013756462756e+00  1.9696024197029909e+00  1.9696034751881788e+00  1.9696045359006