<?xml version="1.0"?>
<VTKFile type="UnstructuredGrid"  version="0.1"  >
<UnstructuredGrid>
<Piece  NumberOfPoints="2601" NumberOfCells="5000">
<Points>
<DataArray  type="Float64"  NumberOfComponents="3"  format="ascii">0 0 0  0.02 0 0  0.04 0 0  0.06 0 0  0.08 0 0  0.1 0 0  0.12 0 0  0.14 0 0  0.16 0 0  0.18 0 0  0.2 0 0  0.22 0 0  0.24 0 0  0.26 0 0  0.28 0 0  0.3 0 0  0.32 0 0  0.34 0 0  0.36 0 0  0.38 0 0  0.4 0 0  0.42 0 0  0.44 0 0  0.46 0 0  0.48 0 0  0.5 0 0  0.52 0 0  0.54 0 0  0.5600000000000001 0 0  0.58 0 0  0.6 0 0  0.62 0 0  0.64 0 0  0.66 0 0  0.68 0 0  0.7 0 0  0.72 0 0  0.74 0 0  0.76 0 0  0.78 0 0  0.8 0 0  0.82 0 0  0.84 0 0  0.86 0 0  0.88 0 0  0.9 0 0  0.92 0 0  0.9399999999999999 0 0  0.96 0 0  0.98 0 0  1 0 0  0 0.02 0  0.02 0.02 0  0.04 0.02 0  0.06 0.02 0  0.08 0.02 0  0.1 0.02 0  0.12 0.02 0  0.14 0.02 0  0.16 0.02 0  0.18 0.02 0  0.2 0.02 0  0.22 0.02 0  0.24 0.02 0  0.26 0.02 0  0.28 0.02 0  0.3 0.02 0  0.32 0.02 0  0.34 0.02 0  0.36 0.02 0  0.38 0.02 0  0.4 0.02 0  0.42 0.02 0  0.44 0.02 0  0.46 0.02 0  0.48 0.02 0  0.5 0.02 0  0.52 0.02 0  0.54 0.02 0  0.5600000000000001 0.02 0  0.58 0.02 0  0.6 0.02 0  0.62 0.02 0  0.64 0.02 0  0.66 0.02 0  0.68 0.02 0  0.7 0.02 0  0.72 0.02 0  0.74 0.02 0  0.76 0.02 0  0.78 0.02 0  0.8 0.02 0  0.82 0.02 0  0.84 0.02 0  0.86 0.02 0  0.88 0.02 0  0.9 0.02 0  0.92 0.02 0  0.9399999999999999 0.02 0  0.96 0.02 0  0.98 0.02 0  1 0.02 0  0 0.04 0  0.02 0.04 0  0.04 0.04 0  0.06 0.04 0  0.08 0.04 0  0.1 0.04 0  0.12 0.04 0  0.14 0.04 0  0.16 0.04 0  0.18 0.04 0  0.2 0.04 0  0.22 0.04 0  0.24 0.04 0  0.26 0.04 0  0.28 0.04 0  0.3 0.04 0  0.32 0.04 0  0.34 0.04 0  0.36 0.04 0  0.38 0.04 0  0.4 0.04 0  0.42 0.04 0  0.44 0.04 0  0.46 0.04 0  0.48 0.04 0  0.5 0.04 0  0.52 0.04 0  0.54 0.04 0  0.5600000000000001 0.04 0  0.58 0.04 0  0.6 0.04 0  0.62 0.04 0  0.64 0.04 0  0.66 0.04 0  0.68 0.04 0  0.7 0.04 0  0.72 0.04 0  0.74 0.04 0  0.76 0.04 0  0.78 0.04 0  0.8 0.04 0  0.82 0.04 0  0.84 0.04 0  0.86 0.04 0  0.88 0.04 0  0.9 0.04 0  0.92 0.04 0  0.9399999999999999 0.04 0  0.96 0.04 0  0.98 0.04 0  1 0.04 0  0 0.06 0  0.02 0.06 0  0.04 0.06 0  0.06 0.06 0  0.08 0.06 0  0.1 0.06 0  0.12 0.06 0  0.14 0.06 0  0.16 0.06 0  0.18 0.06 0  0.2 0.06 0  0.22 0.06 0  0.24 0.06 0  0.26 0.06 0  0.28 0.06 0  0.3 0.06 0  0.32 0.06 0  0.34 0.06 0  0.36 0.06 0  0.38 0.06 0  0.4 0.06 0  0.42 0.06 0  0.44 0.06 0  0.46 0.06 0  0.48 0.06 0  0.5 0.06 0  0.52 0.06 0  0.54 0.06 0  0.5600000000000001 0.06 0  0.58 0.06 0  0.6 0.06 0  0.62 0.06 0  0.64 0.06 0  0.66 0.06 0  0.68 0.06 0  0.7 0.06 0  0.72 0.06 0  0.74 0.06 0  0.76 0.06 0  0.78 0.06 0  0.8 0.06 0  0.82 0.06 0  0.84 0.06 0  0.86 0.06 0  0.88 0.06 0  0.9 0.06 0  0.92 0.06 0  0.9399999999999999 0.06 0  0.96 0.06 0  0.98 0.06 0  1 0.06 0  0 0.08 0  0.02 0.08 0  0.04 0.08 0  0.06 0.08 0  0.08 0.08 0  0.1 0.08 0  0.12 0.08 0  0.14 0.08 0  0.16 0.08 0  0.18 0.08 0  0.2 0.08 0  0.22 0.08 0  0.24 0.08 0  0.26 0.08 0  0.28 0.08 0  0.3 0.08 0  0.32 0.08 0  0.34 0.08 0  0.36 0.08 0  0.38 0.08 0  0.4 0.08 0  0.42 0.08 0  0.44 0.08 0  0.46 0.08 0  0.48 0.08 0  0.5 0.08 0  0.52 0.08 0  0.54 0.08 0  0.5600000000000001 0.08 0  0.58 0.08 0  0.6 0.08 0  0.62 0.08 0  0.64 0.08 0  0.66 0.08 0  0.68 0.08 0  0.7 0.08 0  0.72 0.08 0  0.74 0.08 0  0.76 0.08 0  0.78 0.08 0  0.8 0.08 0  0.82 0.08 0  0.84 0.08 0  0.86 0.08 0  0.88 0.08 0  0.9 0.08 0  0.92 0.08 0  0.9399999999999999 0.08 0  0.96 0.08 0  0.98 0.08 0  1 0.08 0  0 0.1 0  0.02 0.1 0  0.04 0.1 0  0.06 0.1 0  0.08 0.1 0  0.1 0.1 0  0.12 0.1 0  0.14 0.1 0  0.16 0.1 0  0.18 0.1 0  0.2 0.1 0  0.22 0.1 0  0.24 0.1 0  0.26 0.1 0  0.28 0.1 0  0.3 0.1 0  0.32 0.1 0  0.34 0.1 0  0.36 0.1 0  0.38 0.1 0  0.4 0.1 0  0.42 0.1 0  0.44 0.1 0  0.46 0.1 0  0.48 0.1 0  0.5 0.1 0  0.52 0.1 0  0.54 0.1 0  0.5600000000000001 0.1 0  0.58 0.1 0  0.6 0.1 0  0.62 0.1 0  0.64 0.1 0  0.66 0.1 0  0.68 0.1 0  0.7 0.1 0  0.72 0.1 0  0.74 0.1 0  0.76 0.1 0  0.78 0.1 0  0.8 0.1 0  0.82 0.1 0  0.84 0.1 0  0.86 0.1 0  0.88 0.1 0  0.9 0.1 0  0.92 0.1 0  0.9399999999999999 0.1 0  0.96 0.1 0  0.98 0.1 0  1 0.1 0  0 0.12 0  0.02 0.12 0  0.04 0.12 0  0.06 0.12 0  0.08 0.12 0  0.1 0.12 0  0.12 0.12 0  0.14 0.12 0  0.16 0.12 0  0.18 0.12 0  0.2 0.12 0  0.22 0.12 0  0.24 0.12 0  0.26 0.12 0  0.28 0.12 0  0.3 0.12 0  0.32 0.12 0  0.34 0.12 0  0.36 0.12 0  0.38 0.12 0  0.4 0.12 0  0.42 0.12 0  0.44 0.12 0  0.46 0.12 0  0.48 0.12 0  0.5 0.12 0  0.52 0.12 0  0.54 0.12 0  0.5600000000000001 0.12 0  0.58 0.12 0  0.6 0.12 0  0.62 0.12 0  0.64 0.12 0  0.66 0.12 0  0.68 0.12 0  0.7 0.12 0  0.72 0.12 0  0.74 0.12 0  0.76 0.12 0  0.78 0.12 0  0.8 0.12 0  0.82 0.12 0  0.84 0.12 0  0.86 0.12 0  0.88 0.12 0  0.9 0.12 0  0.92 0.12 0  0.9399999999999999 0.12 0  0.96 0.12 0  0.98 0.12 0  1 0.12 0  0 0.14 0  0.02 0.14 0  0.04 0.14 0  0.06 0.14 0  0.08 0.14 0  0.1 0.14 0  0.12 0.14 0  0.14 0.14 0  0.16 0.14 0  0.18 0.14 0  0.2 0.14 0  0.22 0.14 0  0.24 0.14 0  0.26 0.14 0  0.28 0.14 0  0.3 0.14 0  0.32 0.14 0  0.34 0.14 0  0.36 0.14 0  0.38 0.14 0  0.4 0.14 0  0.42 0.14 0  0.44 0.14 0  0.46 0.14 0  0.48 0.14 0  0.5 0.14 0  0.52 0.14 0  0.54 0.14 0  0.5600000000000001 0.14 0  0.58 0.14 0  0.6 0.14 0  0.62 0.14 0  0.64 0.14 0  0.66 0.14 0  0.68 0.14 0  0.7 0.14 0  0.72 0.14 0  0.74 0.14 0  0.76 0.14 0  0.78 0.14 0  0.8 0.14 0  0.82 0.14 0  0.84 0.14 0  0.86 0.14 0  0.88 0.14 0  0.9 0.14 0  0.92 0.14 0  0.9399999999999999 0.14 0  0.96 0.14 0  0.98 0.14 0  1 0.14 0  0 0.16 0  0.02 0.16 0  0.04 0.16 0  0.06 0.16 0  0.08 0.16 0  0.1 0.16 0  0.12 0.16 0  0.14 0.16 0  0.16 0.16 0  0.18 0.16 0  0.2 0.16 0  0.22 0.16 0  0.24 0.16 0  0.26 0.16 0  0.28 0.16 0  0.3 0.16 0  0.32 0.16 0  0.34 0.16 0  0.36 0.16 0  0.38 0.16 0  0.4 0.16 0  0.42 0.16 0  0.44 0.16 0  0.46 0.16 0  0.48 0.16 0  0.5 0.16 0  0.52 0.16 0  0.54 0.16 0  0.5600000000000001 0.16 0  0.58 0.16 0  0.6 0.16 0  0.62 0.16 0  0.64 0.16 0  0.66 0.16 0  0.68 0.16 0  0.7 0.16 0  0.72 0.16 0  0.74 0.16 0  0.76 0.16 0  0.78 0.16 0  0.8 0.16 0  0.82 0.16 0  0.84 0.16 0  0.86 0.16 0  0.88 0.16 0  0.9 0.16 0  0.92 0.16 0  0.9399999999999999 0.16 0  0.96 0.16 0  0.98 0.16 0  1 0.16 0  0 0.18 0  0.02 0.18 0  0.04 0.18 0  0.06 0.18 0  0.08 0.18 0  0.1 0.18 0  0.12 0.18 0  0.14 0.18 0  0.16 0.18 0  0.18 0.18 0  0.2 0.18 0  0.22 0.18 0  0.24 0.18 0  0.26 0.18 0  0.28 0.18 0  0.3 0.18 0  0.32 0.18 0  0.34 0.18 0  0.36 0.18 0  0.38 0.18 0  0.4 0.18 0  0.42 0.18 0  0.44 0.18 0  0.46 0.18 0  0.48 0.18 0  0.5 0.18 0  0.52 0.18 0  0.54 0.18 0  0.5600000000000001 0.18 0  0.58 0.18 0  0.6 0.18 0  0.62 0.18 0  0.64 0.18 0  0.66 0.18 0  0.68 0.18 0  0.7 0.18 0  0.72 0.18 0  0.74 0.18 0  0.76 0.18 0  0.78 0.18 0  0.8 0.18 0  0.82 0.18 0  0.84 0.18 0  0.86 0.18 0  0.88 0.18 0  0.9 0.18 0  0.92 0.18 0  0.9399999999999999 0.18 0  0.96 0.18 0  0.98 0.18 0  1 0.18 0  0 0.2 0  0.02 0.2 0  0.04 0.2 0  0.06 0.2 0  0.08 0.2 0  0.1 0.2 0  0.12 0.2 0  0.14 0.2 0  0.16 0.2 0  0.18 0.2 0  0.2 0.2 0  0.22 0.2 0  0.24 0.2 0  0.26 0.2 0  0.28 0.2 0  0.3 0.2 0  0.32 0.2 0  0.34 0.2 0  0.36 0.2 0  0.38 0.2 0  0.4 0.2 0  0.42 0.2 0  0.44 0.2 0  0.46 0.2 0  0.48 0.2 0  0.5 0.2 0  0.52 0.2 0  0.54 0.2 0  0.5600000000000001 0.2 0  0.58 0.2 0  0.6 0.2 0  0.62 0.2 0  0.64 0.2 0  0.66 0.2 0  0.68 0.2 0  0.7 0.2 0  0.72 0.2 0  0.74 0.2 0  0.76 0.2 0  0.78 0.2 0  0.8 0.2 0  0.82 0.2 0  0.84 0.2 0  0.86 0.2 0  0.88 0.2 0  0.9 0.2 0  0.92 0.2 0  0.9399999999999999 0.2 0  0.96 0.2 0  0.98 0.2 0  1 0.2 0  0 0.22 0  0.02 0.22 0  0.04 0.22 0  0.06 0.22 0  0.08 0.22 0  0.1 0.22 0  0.12 0.22 0  0.14 0.22 0  0.16 0.22 0  0.18 0.22 0  0.2 0.22 0  0.22 0.22 0  0.24 0.22 0  0.26 0.22 0  0.28 0.22 0  0.3 0.22 0  0.32 0.22 0  0.34 0.22 0  0.36 0.22 0  0.38 0.22 0  0.4 0.22 0  0.42 0.22 0  0.44 0.22 0  0.46 0.22 0  0.48 0.22 0  0.5 0.22 0  0.52 0.22 0  0.54 0.22 0  0.5600000000000001 0.22 0  0.58 0.22 0  0.6 0.22 0  0.62 0.22 0  0.64 0.22 0  0.66 0.22 0  0.68 0.22 0  0.7 0.22 0  0.72 0.22 0  0.74 0.22 0  0.76 0.22 0  0.78 0.22 0  0.8 0.22 0  0.82 0.22 0  0.84 0.22 0  0.86 0.22 0  0.88 0.22 0  0.9 0.22 0  0.92 0.22 0  0.9399999999999999 0.22 0  0.96 0.22 0  0.98 0.22 0  1 0.22 0  0 0.24 0  0.02 0.24 0  0.04 0.24 0  0.06 0.24 0  0.08 0.24 0  0.1 0.24 0  0.12 0.24 0  0.14 0.24 0  0.16 0.24 0  0.18 0.24 0  0.2 0.24 0  0.22 0.24 0  0.24 0.24 0  0.26 0.24 0  0.28 0.24 0  0.3 0.24 0  0.32 0.24 0  0.34 0.24 0  0.36 0.24 0  0.38 0.24 0  0.4 0.24 0  0.42 0.24 0  0.44 0.24 0  0.46 0.24 0  0.48 0.24 0  0.5 0.24 0  0.52 0.24 0  0.54 0.24 0  0.5600000000000001 0.24 0  0.58 0.24 0  0.6 0.24 0  0.62 0.24 0  0.64 0.24 0  0.66 0.24 0  0.68 0.24 0  0.7 0.24 0  0.72 0.24 0  0.74 0.24 0  0.76 0.24 0  0.78 0.24 0  0.8 0.24 0  0.82 0.24 0  0.84 0.24 0  0.86 0.24 0  0.88 0.24 0  0.9 0.24 0  0.92 0.24 0  0.9399999999999999 0.24 0  0.96 0.24 0  0.98 0.24 0  1 0.24 0  0 0.26 0  0.02 0.26 0  0.04 0.26 0  0.06 0.26 0  0.08 0.26 0  0.1 0.26 0  0.12 0.26 0  0.14 0.26 0  0.16 0.26 0  0.18 0.26 0  0.2 0.26 0  0.22 0.26 0  0.24 0.26 0  0.26 0.26 0  0.28 0.26 0  0.3 0.26 0  0.32 0.26 0  0.34 0.26 0  0.36 0.26 0  0.38 0.26 0  0.4 0.26 0  0.42 0.26 0  0.44 0.26 0  0.46 0.26 0  0.48 0.26 0  0.5 0.26 0  0.52 0.26 0  0.54 0.26 0  0.5600000000000001 0.26 0  0.58 0.26 0  0.6 0.26 0  0.62 0.26 0  0.64 0.26 0  0.66 0.26 0  0.68 0.26 0  0.7 0.26 0  0.72 0.26 0  0.74 0.26 0  0.76 0.26 0  0.78 0.26 0  0.8 0.26 0  0.82 0.26 0  0.84 0.26 0  0.86 0.26 0  0.88 0.26 0  0.9 0.26 0  0.92 0.26 0  0.9399999999999999 0.26 0  0.96 0.26 0  0.98 0.26 0  1 0.26 0  0 0.28 0  0.02 0.28 0  0.04 0.28 0  0.06 0.28 0  0.08 0.28 0  0.1 0.28 0  0.12 0.28 0  0.14 0.28 0  0.16 0.28 0  0.18 0.28 0  0.2 0.28 0  0.22 0.28 0  0.24 0.28 0  0.26 0.28 0  0.28 0.28 0  0.3 0.28 0  0.32 0.28 0  0.34 0.28 0  0.36 0.28 0  0.38 0.28 0  0.4 0.28 0  0.42 0.28 0  0.44 0.28 0  0.46 0.28 0  0.48 0.28 0  0.5 0.28 0  0.52 0.28 0  0.54 0.28 0  0.5600000000000001 0.28 0  0.58 0.28 0  0.6 0.28 0  0.62 0.28 0  0.64 0.28 0  0.66 0.28 0  0.68 0.28 0  0.7 0.28 0  0.72 0.28 0  0.74 0.28 0  0.76 0.28 0  0.78 0.28 0  0.8 0.28 0  0.82 0.28 0  0.84 0.28 0  0.86 0.28
[...]
<PointData  Scalars="f_10-0"> 
<DataArray  type="Float64"  Name="f_10-0"  format="ascii">2.2544037143117301e+00  2.2544604421898855e+00  2.2544861918347099e+00  2.2545014077733794e+00  2.2545120516181711e+00  2.2545202510589788e+00  2.2545269372994308e+00  2.2545325927171418e+00  2.2545374999263137e+00  2.2545418395658841e+00  2.2545457346402364e+00  2.2545492730539447e+00  2.2545525201034837e+00  2.2545555258782799e+00  2.2545583298814980e+00  2.2545609640403668e+00  2.2545634547383409e+00  2.2545658242295477e+00  2.2545680916503241e+00  2.2545702737608071e+00  2.2545723855016884e+00  2.2545744404222767e+00  2.2545764510180244e+00  2.2545784290041935e+00  2.2545803855449646e+00  2.2545823314525126e+00  2.2545842773675169e+00  2.2545862339308185e+00  2.2545882119550780e+00  2.2545902226052950e+00  2.2545922775978924e+00  2.2545943894298475e+00  2.2545965716523848e+00  2.2545988392085397e+00  2.2546012088612768e+00  2.2546036997503194e+00  2.2546063341338494e+00  2.2546091384001961e+00  2.2546121444825036e+00  2.2546153918912180e+00  2.2546189307249027e+00  2.2546228262917842e+00  2.2546271665120323e+00  2.2546320744115524e+00  2.2546377306605008e+00  2.2546444179214289e+00  2.2546526186538376e+00  2.2546632642185895e+00  2.2546784826636834e+00  2.2547042366031969e+00  2.2547609739977648e+00  2.2548006805448613e+00  2.2548162049954210e+00  2.2548317370880855e+00  2.2548439750830398e+00  2.2548535571195369e+00  2.2548612925435840e+00  2.2548677388962592e+00  2.2548732541122996e+00  2.2548780719643635e+00  2.2548823509549591e+00  2.2548862028443879e+00  2.2548897093081219e+00  2.2548929319546245e+00  2.2548959185725743e+00  2.2548987071676132e+00  2.2549013286570863e+00  2.2549038087223656e+00  2.2549061691161598e+00  2.2549084286077616e+00  2.2549106036822293e+00  2.2549127090691665e+00  2.2549147581518016e+00  2.2549167632912304e+00  2.2549187360904868e+00  2.2549206876164432e+00  2.2549226285931745e+00  2.2549245695776641e+00  2.2549265211270617e+00  2.2549284939659411e+00  2.2549304991620134e+00  2.2549325483195055e+00  2.2549346538010804e+00  2.2549368289919367e+00  2.2549390886240945e+00  2.2549414491855306e+00  2.2549439294490417e+00  2.2549465511715394e+00  2.2549493400394600e+00  2.2549523269763081e+00  2.2549555499953202e+00  2.2549590568947147e+00  2.2549629092952221e+00  2.2549671888885401e+00  2.2549720074571735e+00  2.2549775235352119e+00  2.2549839709421282e+00  2.2549917076844750e+00  2.2550012914129134e+00  2.2550135316128950e+00  2.2550290663942056e+00  2.2550445924061786e+00  2.2558473271968618e+00  2.2558526465325315e+00  2.2558612701871796e+00  2.2558698973067015e+00  2.2558776121233022e+00  2.2558843291249304e+00  2.2558901802542626e+00  2.2558953237142023e+00  2.2558998956418028e+00  2.2559040039404321e+00  2.2559077325145229e+00  2.2559111468257660e+00  2.2559142985723195e+00  2.2559172292246576e+00  2.2559199726114820e+00  2.2559225568003880e+00  2.2559250054736886e+00  2.2559273389461802e+00  2.2559295749284791e+00  2.2559317291084082e+00  2.2559338156013271e+00  2.2559358473055160e+00  2.2559378361886058e+00  2.2559397935241656e+00  2.2559417300928306e+00  2.2559436563591770e+00  2.2559455826334682e+00  2.2559475192261345e+00  2.2559494766022503e+00  2.2559514655432915e+00  2.2559534973240196e+00  2.2559555839136323e+00  2.2559577382123748e+00  2.2559599743380137e+00  2.2559623079812701e+00  2.2559647568562253e+00  2.2559673412818118e+00  2.2559700849452864e+00  2.2559730159201958e+00  2.2559761680424693e+00  2.2559795827914679e+00  2.2559833118764261e+00  2.2559874207730166e+00  2.2559919934034682e+00  2.2559971376936487e+00  2.2560029898077287e+00  2.2560097079757879e+00  2.2560174241472417e+00  2.2560260527264928e+00  2.2560346775778632e+00  2.2560399968709617e+00  2.2575645288562236e+00  2.2575668869300451e+00  2.2575719065992557e+00  2.2575778422109245e+00  2.2575837784921102e+00  2.2575893478630591e+00  2.2575944479339274e+00  2.2575990855748764e+00  2.2576033055144333e+00  2.2576071608676518e+00  2.2576107021617418e+00  2.2576139739923051e+00  2.2576170146324550e+00  2.2576198566654058e+00  2.2576225278759616e+00  2.2576250521174965e+00  2.2576274500650579e+00  2.2576297398403899e+00  2.2576319375211793e+00  2.2576340575539979e+00  2.2576361130902605e+00  2.2576381162620516e+00  2.2576400784117614e+00  2.2576420102868946e+00  2.2576439222093021e+00  2.2576458242265138e+00  2.2576477262517303e+00  2.2576496381983144e+00  2.2576515701142830e+00  2.2576535323223048e+00  2.2576555355710428e+00  2.2576575912044050e+00  2.2576597113563710e+00  2.2576619091806616e+00  2.2576641991266051e+00  2.2576665972751493e+00  2.2576691217518756e+00  2.2576717932363346e+00  2.2576746355871817e+00  2.2576776765954194e+00  2.2576809488515175e+00  2.2576844906370139e+00  2.2576883465570670e+00  2.2576925671490979e+00  2.2576972055373883e+00  2.2577023064542345e+00  2.2577078767570908e+00  2.2577138140022477e+00  2.2577197504675701e+00  2.2577247705890833e+00  2.2577271283211195e+00  2.2599589418857216e+00  2.2599602566937298e+00  2.2599634200239538e+00  2.2599675818229032e+00  2.2599721095708274e+00  2.2599766359640574e+00  2.2599809801706243e+00  2.2599850691357304e+00  2.2599888856717678e+00  2.2599924391028470e+00  2.2599957499440251e+00  2.2599988423342263e+00  2.2600017405046788e+00  2.2600044672731716e+00  2.2600070435249484e+00  2.2600094881557338e+00  2.2600118182166615e+00  2.2600140491344982e+00  2.2600161949475526e+00  2.2600182685310077e+00  2.2600202818018063e+00  2.2600222459010810e+00  2.2600241713557372e+00  2.2600260682222997e+00  2.2600279462166468e+00  2.2600298148333047e+00  2.2600316834578953e+00  2.2600335614761944e+00  2.2600354583831903e+00  2.2600373838955332e+00  2.2600393480708396e+00  2.2600413614374348e+00  2.2600434351382126e+00  2.2600455810922360e+00  2.2600478121771879e+00  2.2600501424342823e+00  2.2600525872936235e+00  2.2600551638101369e+00  2.2600578908838047e+00  2.2600607894045632e+00  2.2600638821952179e+00  2.2600671934920396e+00  2.2600707474383519e+00  2.2600745645515521e+00  2.2600786541531659e+00  2.2600829990425853e+00  2.2600875261317555e+00  2.2600920545198782e+00  2.2600962167820704e+00  2.2600993802286582e+00  2.2601006946687909e+00  2.2630336584713411e+00  2.2630345288193561e+00  2.2630366870999734e+00  2.2630397092799921e+00  2.2630431976311449e+00  2.2630468637108550e+00  2.2630505268634677e+00  2.2630540859897095e+00  2.2630574913351675e+00  2.2630607237583291e+00  2.2630637813380661e+00  2.2630666712983403e+00  2.2630694053442899e+00  2.2630719970567692e+00  2.2630744604869721e+00  2.2630768094357383e+00  2.2630790571169874e+00  2.2630812160328460e+00  2.2630832979625848e+00  2.2630853140103131e+00  2.2630872746808732e+00  2.2630891899673506e+00  2.2630910694415531e+00  2.2630929223433380e+00  2.2630947576672145e+00  2.2630965842460702e+00  2.2630984108326557e+00  2.2631002461798615e+00  2.2631020991209998e+00  2.2631039786512868e+00  2.2631058940115736e+00  2.2631078547749488e+00  2.2631098709360695e+00  2.2631119530016415e+00  2.2631141120779272e+00  2.2631163599466317e+00  2.2631187091125788e+00  2.2631211727925988e+00  2.2631237647905684e+00  2.2631264991606725e+00  2.2631293894863971e+00  2.2631324474745851e+00  2.2631356803489813e+00  2.2631390861846072e+00  2.2631426458296375e+00  2.2631463095085085e+00  2.2631499760839877e+00  2.2631534648396525e+00  2.2631564872490655e+00  2.2631586454953347e+00  2.2631595155037911e+00  2.2667908461449344e+00  2.2667914968096703e+00  2.2667930749140601e+00  2.2667953564093226e+00  2.2667980952096309e+00  2.2668010831096441e+00  2.2668041677845383e+00  2.2668072482602017e+00  2.2668102629271689e+00  2.2668131775633120e+00  2.2668159758861171e+00  2.2668186528716681e+00  2.2668212103093901e+00  2.2668236539542015e+00  2.2668259917497089e+00  2.2668282327440701e+00  2.2668303864442345e+00  2.2668324624438254e+00  2.2668344702201502e+00  2.2668364190348318e+00  2.2668383178973444e+00  2.2668401755662715e+00  2.2668420005728485e+00  2.2668438012573788e+00  2.2668455858128906e+00  2.2668473623326926e+00  2.2668491388598948e+00  2.2668509234377336e+00  2.2668527241598944e+00  2.2668545492200298e+00  2.2668564069593149e+00  2.2668583059100960e+00  2.2668602548322982e+00  2.2668622627369523e+00  2.2668643388874301e+00  2.2668664927629383e+00  2.2668687339590887e+00  2.2668710719848044e+00  2.2668735158900373e+00  2.2668760736197431e+00  2.2668787509293216e+00  2.2668815496071431e+00  2.2668844646256763e+00  2.2668874796947009e+00  2.2668905605781529e+00  2.2668936456437407e+00  2.2668966338831034e+00  2.2668993729252160e+00  2.2669016545118272e+00  2.2669032325134282e+00  2.2669038828736987e+00  2.2712324966776518e+00  2.2712330278062480e+00  2.2712342503979128e+00  2.2712360382007843e+00  2.2712382367526507e+00  2.2712406999985046e+00  2.2712433084106456e+00  2.2712459730843508e+00  2.2712486325071137e+00  2.2712512468100208e+00  2.2712537920236842e+00  2.2712562553196527e+00  2.2712586314203227e+00  2.2712609200338996e+00  2.2712631240838230e+00  2.2712652485150326e+00  2.2712672995035010e+00  2.2712692839412365e+00  2.2712712091067870e+00  2.2712730824595035e+00  2.2712749115158655e+00  2.2712767037799471e+00  2.2712784667094255e+00  2.2712802077047516e+00  2.2712819341132047e+00  2.2712836532422438e+00  2.2712853723782400e+00  2.2712870988076723e+00  2.2712888398383217e+00  2.2712906028180009e+00  2.2712923951478921e+00  2.2712942242865943e+00  2.2712960977392709e+00  2.2712980230236268e+00  2.2713000076003347e+00  2.2713020587492925e+00  2.2713041833637950e+00  2.2713063876208937e+00  2.2713086764661954e+00  2.2713110528230875e+00  2.2713135163985640e+00  2.2713160619120130e+00  2.2713186765293143e+00  2.2713213362716176e+00  2.2713240012554392e+00  2.2713266099473817e+00  2.2713290734151297e+00  2.2713312720984287e+00  2.2713330599104360e+00  2.2713342823684597e+00  2.2713348132244153e+00  2.2763606761227373e+00  2.2763611389140181e+00  2.2763621327218675e+00  2.2763635820033818e+00  2.2763653872398883e+00  2.2763674463465415e+00  2.2763696684477233e+00  2.2763719799022066e+00  2.2763743250178030e+00  2.2763766640066025e+00  2.2763789699612147e+00  2.2763812258335907e+00  2.2763834218420524e+00  2.2763855534186126e+00  2.2763876196615014e+00  2.2763896222049489e+00  2.2763915644114658e+00  2.2763934508037478e+00  2.2763952866702706e+00  2.2763970777948046e+00  2.2763988302734037e+00  2.2764005503926485e+00  2.2764022445504932e+00  2.2764039192064525e+00  2.2764055808516606e+00  2.2764072359919263e+00  2.2764088911386069e+00  2.2764105528031484e+00  2.2764122274916243e+00  2.2764139216956019e+00  2.2764156418751837e+00  2.2764173944290484e+00  2.2764191856446079e+00  2.2764210216188103e+00  2.2764229081363321e+00  2.2764248504864795e+00  2.2764268531925929e+00  2.2764289196174841e+00  2.2764310513951238e+00  2.2764332476226210e+00  2.2764355037296080e+00  2.2764378099302447e+00  2.2764401491699049e+00  2.2764424945314952e+00  2.2764448062136426e+00  2.2764470285066793e+00  2.2764490877485231e+00  2.2764508930415941e+00  2.2764523422824685e+00  2.2764533359437000e+00  2.2764537984893893e+00  2.2821776235311737e+00  2.2821780469814446e+00  2.2821788879368023e+00  2.2821800987895386e+00  2.2821816135150468e+00  2.2821833601816737e+00  2.2821852705035002e+00  2.2821872853579381e+00  2.2821893568950737e+00  2.2821914484155137e+00  2.2821935330840910e+00  2.2821955922192347e+00  2.2821976135839308e+00  2.2821995898796543e+00  2.2822015175093102e+00  2.2822033956048218e+00  2.2822052252847174e+00  2.2822070090986224e+00  2.2822087506175697e+00  2.2822104541351060e+00  2.2822121244510720e+00  2.2822137667162448e+00  2.2822153863212442e+00  2.2822169888171868e+00  2.2822185798586134e+00  2.2822201651614202e+00  2.2822217504700184e+00  2.2822233415288906e+00  2.2822249440541391e+00  2.2822265637006387e+00  2.2822282060199504e+00  2.2822298764032256e+00  2.2822315800018256e+00  2.2822333216161765e+00  2.2822351055403489e+00  2.2822369353457486e+00  2.2822388135821043e+00  2.2822407413676227e+00  2.2822427178332751e+00  2.2822447393801224e+00  2.2822467987065806e+00  2.2822488835709800e+00  2.2822509752850904e+00  2.2822530470047222e+00  2.2822550620189239e+00  2.2822569724639363e+00  2.2822587192020301e+00  2.2822602339328855e+00  2.2822614447143486e+00  2.2822622855189021e+00  2.2822627087462393e+00  2.2886857962461282e+00  2.2886861980643967e+00  2.2886869341040783e+00  2.2886879730317524e+00  2.2886892697807153e+00  2.2886907729906545e+00  2.2886924314199510e+00  2.2886941983311919e+00  2.2886960338193520e+00  2.2886979055448933e+00  2.2886997884445845e+00  2.2887016639047890e+00  2.2887035187342768e+00  2.2887053441381058e+00  2.2887071347948273e+00  2.2887088880761373e+00  2.2887106034125537e+00  2.2887122817913625e+00  2.2887139253664968e+00  2.2887155371592329e+00  2.2887171208304973e+00  2.2887186805084303e+00  2.2887202206578343e+00  2.2887217459807312e+00  2.2887232613394075e+00  2.2887247716949766e+00  2.2887262820556549e+00  2.2887277974297082e+00  2.2887293227784022e+00  2.2887308629642624e+00  2.2887324226896211e+00  2.2887340064196340e+00  2.2887356182827996e+00  2.2887372619403550e+00  2.2887389404137743e+00  2.2887406558569849e+00  2.2887424092569515e+00  2.2887442000434133e+00  2.2887460255866521e+00  2.2887478805629620e+00  2.2887497561740626e+00  2.2887516392240537e+00  2.2887535110930792e+00  2.2887553467100230e+00  2.2887571137258917e+00  2.2887587722250968e+00  2.2887602754595382e+00  2.2887615721783892e+00  2.2887626110156978e+00  2.2887633469047763e+00  2.2887637485190764e+00  2.2958878934537448e+00  2.2958882850905140e+00  2.2958889478362492e+00  2.2958898603163740e+00  2.2958909909645180e+00  2.2958923025587414e+00  2.2958937564954631e+00  2.2958953160752649e+00  2.2958969485886773e+00  2.2958986263320385e+00  2.2959003268305826e+00  2.2959020325582413e+00  2.2959037303903416e+00  2.2959054109547674e+00  2.2959070679839213e+00  2.2959086977225369e+00  2.2959102984149573e+00  2.2959118698766536e+00  2.2959134131446342e+00  2.2959149301968265e+00  2.2959164237291474e+00  2.2959178969793190e+00  2.2959193535875646e+00  2.2959207974856528e+00  2.2959222328070075e+00  2.2959236638116716e+00  2.2959250948207219e+00  2.2959265301552683e+00  2.2959279740754543e+00  2.2959294307148581e+00  2.2959309040054365e+00  2.2959323975876091e+00  2.2959339146992610e+00  2.2959354580363907e+00  2.2959370295768573e+00  2.2959386303573717e+00  2.2959402601927761e+00  2.2959419173263345e+00  2.2959435980011067e+00  2.2959452959470759e+00  2.2959470017887984e+00  2.2959487023972285e+00  2.2959503802407952e+00  2.2959520128381361e+00  2.2959535724781190e+00  2.2959550264434410e+00  2.2959563380273251e+00  2.2959574686204816e+00  2.2959583809982593e+00  2.2959590435957398e+00  2.2959594350444594e+00  2.3037868697718444e+00  2.3037872589689803e+00  2.3037878700550936e+00  2.3037886880146146e+00  2.3037896902327750e+00  2.3037908493371555e+00  2.3037921360608271e+00  2.3037935216417171e+00  2.3037949795367849e+00  2.3037964864439071e+00  2.3037980227478614e+00  2.3037995725503397e+00  2.3038011234367533e+00  2.3038026661020545e+00  2.3038041939221543e+00  2.3038057025260295e+00  2.3038071893996275e+00  2.3038086535361217e+00  2.3038100951366354e+00  2.3038115153594707e+00  2.3038129161128107e+00  2.3038142998845634e+00  2.3038156696027916e+00  2.3038170285204780e+00  2.3038183801188779e+00  2.3038197280242576e+00  2.3038210759332807e+00  2.3038224275426313e+00  2.3038237864786306e+00  2.3038251562226137e+00  2.3038265400276474e+00  2.3038279408218578e+00  2.3038293610931562e+00  2.3038308027496224e+00  2.3038322669492910e+00  2.3038337538927776e+00  2.3038352625724290e+00  2.3038367904729449e+00  2.3038383332215329e+00  2.3038398841917047e+00  2.3038414340752920e+00  2.3038429704538030e+00  2.3038444774242532e+00  2.3038459353660801e+00  2.3038473209714261e+00  2.3038486076915854e+00  2.3038497667595554e+00  2.3038507689050465e+00  2.3038515867546971e+00  2.3038521976958646e+00  2.3038525867183504e+00  2.3123859438395131e+00  2.3123863360232830e+00  2.3123869107049120e+00  2.3123876570816058e+00  2.3123885586396900e+00  2.3123895949821764e+00  2.3123907437676472e+00  2.3123919824455768e+00  2.3123932896067294e+00  2.3123946458950932e+00  2.3123960345170249e+00  2.3123974414287360e+00  2.3123988552948678e+00  2.3124002673022601e+00  2.3124016708955457e+00  2.3124030614822781e+00  2.3124044361387317e+00  2.3124057933346589e+00  2.3124071326861446e+00  2.3124084547396322e+00  2.3124097607864940e+00  2.3124110527053898e+00  2.3124123328286341e+00  2.3124136038283756e+00  2.3124148686183559e+00  2.3124161302671298e+00  2.3124173919188054e+00  2.3124186567174974e+00  2.3124199277317787e+00  2.3124212078754072e+00  2.3124224998205305e+00  2.3124238058994195e+00  2.3124251279906125e+00  2.3124264673852410e+00  2.3124278246293390e+00  2.3124291993383506e+00  2.3124305899810915e+00  2.3124319936325310e+00  2.3124334056984743e+00  2.3124348196213025e+00  2.3124362265850529e+00  2.3124376152510124e+00  2.3124389715715399e+00  2.3124402787487917e+00  2.3124415174224682e+00  2.3124426661793480e+00  2.3124437024657318e+00  2.3124446039384137e+00  2.3124453502005391e+00  2.3124459247408455e+00  2.3124463167612554e+00  2.3216886042245735e+00  2.3216890033127502e+00  2.3216895526180115e+00  2.3216902442200782e+00  2.3216910658722716e+00  2.3216920022060052e+00  2.3216930360610739e+00  2.3216941497390162e+00  2.3216953260438156e+00  2.3216965490486028e+00  2.3216978045870293e+00  2.3216990805055659e+00  2.3217003667297282e+00  2.3217016551990834e+00  2.3217029397192079e+00  2.3217042157685737e+00  2.3217054802878425e+00  2.3217067314698747e+00  2.3217079685615287e+00  2.3217091916830404e+00  2.3217104016671262e+00  2.3217115999175864e+00  2.3217127882857391e+00  2.3217139689622117e+00  2.3217151443811748e+00  2.3217163171339621e+00  2.3217174898889263e+00  2.3217186653144171e+00  2.3217198460017539e+00  2.3217210343850754e+00  2.3217222326549396e+00  2.3217234426625390e+00  2.3217246658114608e+00  2.3217259029340855e+00  2.3217271541501483e+00  2.3217284187057965e+00  2.3217296947929169e+00  2.3217309793508858e+00  2.3217322678565324e+00  2.3217335541134014e+00  2.3217348300586305e+00  2.3217360856149378e+00  2.3217373086257109e+00  2.3217384849213847e+00  2.3217395985719733e+00  2.3217406323787584e+00  2.3217415686413676e+00  2.3217423901988687e+00  2.3217430816834654e+00  2.3217436308509773e+00  2.3217440297852971e+00  2.3316986138231641e+00  2.3316990227152852e+00  2.3316995547798260e+00  2.3317002041266548e+00  2.3317009615667477e+00  2.3317018154235014e+00  2.3317027524576819e+00  2.3317037587750691e+00  2.3317048206192288e+00  2.3317059249946275e+00  2.3317070601041889e+00  2.3317082156135012e+00  2.3317093827698736e+00  2.3317105544103844e+00  2.3317117248921595e+00  2.3317128899734665e+00  2.3317140466681092e+00  2.3317151930895221e+00  2.3317163282956503e+00  2.3317174521414636e+00  2.3317185651427521e+00  2.3317196683525774e+00  2.3317207632502166e+00  2.3317218516414089e+00  2.3317229355681142e+00  2.3317240172256177e+00  2.3317250988846059e+00  2.3317261828157543e+00  2.3317272712143100e+00  2.3317283661221619e+00  2.3317294693449306e+00  2.3317305823617067e+00  2.3317317062252774e+00  2.3317328414510361e+00  2.3317339878934042e+00  2.3317351446095933e+00  2.3317363097120802e+00  2.3317374802134578e+00  2.3317386518705057e+00  2.3317398190385754e+00  2.3317409745526989e+00  2.3317421096579172e+00  2.3317432140174166e+00  2.3317442758317304e+00  2.3317452821031415e+00  2.3317462190734872e+00  2.3317470728475449e+00  2.3317478301860719e+00  2.3317484794136569e+00  2.3317490113437667e+00  2.3317494200899951e+00  2.3424200133869331e+00  2.3424204342738371e+00  2.3424209551963813e+00  2.3424215717328485e+00  2.3424222769369245e+00  2.3424230618943875e+00  2.3424239163740270e+00  2.3424248294875087e+00  2.3424257902893277e+00  2.3424267882724865e+00  2.3424278137402115e+00  2.3424288580539758e+00  2.3424299137712969e+00  2.3424309746935